PDB_ID,Residue,Chain ID,Residue ID,Expt. pKa,Cal. pKa,SMILES_Residue,solvent,SMILES,H_Gasteiger_Charge,DH_Index,pKa
1A2P,ASP,C,8,3.3,3.24,OC(C[C@H](N)C(O)=O)=O,H2O,OC(C[C@@H](C(NCC(O)=O)=O)NC(CN)=O)=O,0.296269336,1776,3.3
1A2P,ASP,C,12,3.8,3.28,OC(C[C@H](N)C(O)=O)=O,H2O,OC(C[C@@H](C(NCC(O)=O)=O)NC(CN)=O)=O,0.296269336,1800,3.8
1A2P,HIS,C,18,7.73,6.79,N[C@H](C(O)=O)CC1=CNC=N1,H2O,O=C([C@@H](NC(CN)=O)CC1=CNC=[NH+]1)NCC(O)=O,0.311248158,1855,7.73
1A2P,ASP,C,22,3.3,3.54,OC(C[C@H](N)C(O)=O)=O,H2O,OC(C[C@@H](C(NCC(O)=O)=O)NC(CN)=O)=O,0.296269336,1890,3.3
1A2P,GLU,C,29,3.75,4.34,N[C@H](C(O)=O)CCC(O)=O,H2O,O=C(NCC(O)=O)[C@H](CCC(O)=O)NC(CN)=O,0.296267722,1949,3.75
1A2P,ASP,C,44,3.5,3.74,OC(C[C@H](N)C(O)=O)=O,H2O,OC(C[C@@H](C(NCC(O)=O)=O)NC(CN)=O)=O,0.296267722,2054,3.5
1A2P,GLU,C,60,3,3.99,N[C@H](C(O)=O)CCC(O)=O,H2O,O=C(NCC(O)=O)[C@H](CCC(O)=O)NC(CN)=O,0.296267722,2169,3
1A2P,GLU,C,73,2.2,3.58,N[C@H](C(O)=O)CCC(O)=O,H2O,O=C(NCC(O)=O)[C@H](CCC(O)=O)NC(CN)=O,0.296267722,2272,2.2
1A2P,ASP,C,75,2.8,2.03,OC(C[C@H](N)C(O)=O)=O,H2O,OC(C[C@@H](C(NCC(O)=O)=O)NC(CN)=O)=O,0.296269336,2285,2.8
1A2P,ASP,C,86,4.2,3.32,OC(C[C@H](N)C(O)=O)=O,H2O,OC(C[C@@H](C(NCC(O)=O)=O)NC(CN)=O)=O,0.296269336,2374,4.2
1A2P,HIS,C,102,6.3,6.38,N[C@H](C(O)=O)CC1=CNC=N1,H2O,O=C([C@@H](NC(CN)=O)CC1=CNC=[NH+]1)NCC(O)=O,0.311248158,2513,6.3
1A6K,HIS,A,12,6.3,6.8,N[C@H](C(O)=O)CC1=CNC=N1,H2O,O=C([C@@H](NC(CN)=O)CC1=CNC=[NH+]1)NCC(O)=O,0.311248158,95,6.3
1A6K,HIS,A,24,5,5.66,N[C@H](C(O)=O)CC1=CNC=N1,H2O,O=C([C@@H](NC(CN)=O)CC1=CNC=[NH+]1)NCC(O)=O,0.311248158,185,5
1A6K,HIS,A,36,8.1,6.74,N[C@H](C(O)=O)CC1=CNC=N1,H2O,O=C([C@@H](NC(CN)=O)CC1=CNC=[NH+]1)NCC(O)=O,0.311248158,285,8.1
1A6K,HIS,A,48,5.3,6.37,N[C@H](C(O)=O)CC1=CNC=N1,H2O,O=C([C@@H](NC(CN)=O)CC1=CNC=[NH+]1)NCC(O)=O,0.311248158,394,5.3
1A6K,HIS,A,64,5,5.71,N[C@H](C(O)=O)CC1=CNC=N1,H2O,O=C([C@@H](NC(CN)=O)CC1=CNC=[NH+]1)NCC(O)=O,0.311248158,522,5
1A6K,HIS,A,81,6.7,6.66,N[C@H](C(O)=O)CC1=CNC=N1,H2O,O=C([C@@H](NC(CN)=O)CC1=CNC=[NH+]1)NCC(O)=O,0.311248158,641,6.7
1A6K,HIS,A,82,5,6.99,N[C@H](C(O)=O)CC1=CNC=N1,H2O,O=C([C@@H](NC(CN)=O)CC1=CNC=[NH+]1)NCC(O)=O,0.311248158,651,5
1A6K,HIS,A,93,5,5.81,N[C@H](C(O)=O)CC1=CNC=N1,H2O,O=C([C@@H](NC(CN)=O)CC1=CNC=[NH+]1)NCC(O)=O,0.311248158,736,5
1A6K,HIS,A,97,5.6,5.58,N[C@H](C(O)=O)CC1=CNC=N1,H2O,O=C([C@@H](NC(CN)=O)CC1=CNC=[NH+]1)NCC(O)=O,0.311248158,767,5.6
1A6K,HIS,A,113,5.4,6.09,N[C@H](C(O)=O)CC1=CNC=N1,H2O,O=C([C@@H](NC(CN)=O)CC1=CNC=[NH+]1)NCC(O)=O,0.311248158,902,5.4
1A6K,HIS,A,116,6.5,6.5,N[C@H](C(O)=O)CC1=CNC=N1,H2O,O=C([C@@H](NC(CN)=O)CC1=CNC=[NH+]1)NCC(O)=O,0.311248158,927,6.5
1A6K,HIS,A,119,6.1,5.81,N[C@H](C(O)=O)CC1=CNC=N1,H2O,O=C([C@@H](NC(CN)=O)CC1=CNC=[NH+]1)NCC(O)=O,0.311248158,954,6.1
1A6M,HIS,A,12,6.3,6.77,N[C@H](C(O)=O)CC1=CNC=N1,H2O,O=C([C@@H](NC(CN)=O)CC1=CNC=[NH+]1)NCC(O)=O,0.311248158,95,6.3
1A6M,HIS,A,24,5,5.73,N[C@H](C(O)=O)CC1=CNC=N1,H2O,O=C([C@@H](NC(CN)=O)CC1=CNC=[NH+]1)NCC(O)=O,0.311248158,185,5
1A6M,HIS,A,36,8.1,6.75,N[C@H](C(O)=O)CC1=CNC=N1,H2O,O=C([C@@H](NC(CN)=O)CC1=CNC=[NH+]1)NCC(O)=O,0.311248158,285,8.1
1A6M,HIS,A,48,5.3,6.36,N[C@H](C(O)=O)CC1=CNC=N1,H2O,O=C([C@@H](NC(CN)=O)CC1=CNC=[NH+]1)NCC(O)=O,0.311248158,394,5.3
1A6M,HIS,A,64,5,5.71,N[C@H](C(O)=O)CC1=CNC=N1,H2O,O=C([C@@H](NC(CN)=O)CC1=CNC=[NH+]1)NCC(O)=O,0.311248158,522,5
1A6M,HIS,A,81,6.7,6.66,N[C@H](C(O)=O)CC1=CNC=N1,H2O,O=C([C@@H](NC(CN)=O)CC1=CNC=[NH+]1)NCC(O)=O,0.311248158,641,6.7
1A6M,HIS,A,82,5,6.97,N[C@H](C(O)=O)CC1=CNC=N1,H2O,O=C([C@@H](NC(CN)=O)CC1=CNC=[NH+]1)NCC(O)=O,0.311248158,651,5
1A6M,HIS,A,93,5,5.83,N[C@H](C(O)=O)CC1=CNC=N1,H2O,O=C([C@@H](NC(CN)=O)CC1=CNC=[NH+]1)NCC(O)=O,0.311248158,736,5
1A6M,HIS,A,97,5.6,5.58,N[C@H](C(O)=O)CC1=CNC=N1,H2O,O=C([C@@H](NC(CN)=O)CC1=CNC=[NH+]1)NCC(O)=O,0.311248158,767,5.6
1A6M,HIS,A,113,5.4,6.09,N[C@H](C(O)=O)CC1=CNC=N1,H2O,O=C([C@@H](NC(CN)=O)CC1=CNC=[NH+]1)NCC(O)=O,0.311248158,902,5.4
1A6M,HIS,A,116,6.5,6.49,N[C@H](C(O)=O)CC1=CNC=N1,H2O,O=C([C@@H](NC(CN)=O)CC1=CNC=[NH+]1)NCC(O)=O,0.311248158,927,6.5
1A6M,HIS,A,119,6.1,5.84,N[C@H](C(O)=O)CC1=CNC=N1,H2O,O=C([C@@H](NC(CN)=O)CC1=CNC=[NH+]1)NCC(O)=O,0.311248158,954,6.1
1B2X,ASP,A,8,3.3,3.27,OC(C[C@H](N)C(O)=O)=O,H2O,OC(C[C@@H](C(NCC(O)=O)=O)NC(CN)=O)=O,0.296269336,49,3.3
1B2X,ASP,A,12,3.8,3.37,OC(C[C@H](N)C(O)=O)=O,H2O,OC(C[C@@H](C(NCC(O)=O)=O)NC(CN)=O)=O,0.296269336,73,3.8
1B2X,HIS,A,18,7.73,6.75,N[C@H](C(O)=O)CC1=CNC=N1,H2O,O=C([C@@H](NC(CN)=O)CC1=CNC=[NH+]1)NCC(O)=O,0.311248158,128,7.73
1B2X,ASP,A,22,3.3,3.52,OC(C[C@H](N)C(O)=O)=O,H2O,OC(C[C@@H](C(NCC(O)=O)=O)NC(CN)=O)=O,0.296269336,163,3.3
1B2X,GLU,A,29,3.75,4.32,N[C@H](C(O)=O)CCC(O)=O,H2O,O=C(NCC(O)=O)[C@H](CCC(O)=O)NC(CN)=O,0.296267722,222,3.75
1B2X,ASP,A,44,3.5,3.82,OC(C[C@H](N)C(O)=O)=O,H2O,OC(C[C@@H](C(NCC(O)=O)=O)NC(CN)=O)=O,0.296269336,327,3.5
1B2X,GLU,A,60,3,4.25,N[C@H](C(O)=O)CCC(O)=O,H2O,O=C(NCC(O)=O)[C@H](CCC(O)=O)NC(CN)=O,0.296267722,442,3
1B2X,GLU,A,73,2.2,3.63,N[C@H](C(O)=O)CCC(O)=O,H2O,O=C(NCC(O)=O)[C@H](CCC(O)=O)NC(CN)=O,0.296267722,545,2.2
1B2X,ASP,A,75,2.8,2.18,OC(C[C@H](N)C(O)=O)=O,H2O,OC(C[C@@H](C(NCC(O)=O)=O)NC(CN)=O)=O,0.296269336,558,2.8
1B2X,ASP,A,86,4.2,3.28,OC(C[C@H](N)C(O)=O)=O,H2O,OC(C[C@@H](C(NCC(O)=O)=O)NC(CN)=O)=O,0.296269336,647,4.2
1B2X,HIS,A,102,6.3,6.18,N[C@H](C(O)=O)CC1=CNC=N1,H2O,O=C([C@@H](NC(CN)=O)CC1=CNC=[NH+]1)NCC(O)=O,0.311248158,786,6.3
1BEG,ASP,A,21,2.5,3.63,OC(C[C@H](N)C(O)=O)=O,H2O,OC(C[C@@H](C(NCC(O)=O)=O)NC(CN)=O)=O,0.296269336,150,2.5
1BEG,ASP,A,30,2.5,4.04,OC(C[C@H](N)C(O)=O)=O,H2O,OC(C[C@@H](C(NCC(O)=O)=O)NC(CN)=O)=O,0.296269336,216,2.5
1BEG,ASP,A,72,2.6,3.66,OC(C[C@H](N)C(O)=O)=O,H2O,OC(C[C@@H](C(NCC(O)=O)=O)NC(CN)=O)=O,0.296269336,524,2.6
1BEO,ASP,A,21,2.5,3.03,OC(C[C@H](N)C(O)=O)=O,H2O,OC(C[C@@H](C(NCC(O)=O)=O)NC(CN)=O)=O,0.296269336,150,2.5
1BEO,ASP,A,30,2.5,3.55,OC(C[C@H](N)C(O)=O)=O,H2O,OC(C[C@@H](C(NCC(O)=O)=O)NC(CN)=O)=O,0.296269336,216,2.5
1BEO,ASP,A,72,2.6,3.81,OC(C[C@H](N)C(O)=O)=O,H2O,OC(C[C@@H](C(NCC(O)=O)=O)NC(CN)=O)=O,0.296269336,524,2.6
1BF4,LYS,A,7,11.5,11.44,N[C@H](C(O)=O)CCCCN,H2O,O=C([C@@H](NC(CN)=O)CCCC[NH3+])NCC(O)=O,0.344006605,369,11.5
1BF4,GLU,A,11,3.5,4.31,N[C@H](C(O)=O)CCC(O)=O,H2O,O=C(NCC(O)=O)[C@H](CCC(O)=O)NC(CN)=O,0.296267722,403,3.5
1BF4,GLU,A,12,3.5,3.49,N[C@H](C(O)=O)CCC(O)=O,H2O,O=C(NCC(O)=O)[C@H](CCC(O)=O)NC(CN)=O,0.296267722,412,3.5
1BF4,LYS,A,13,10,11.15,N[C@H](C(O)=O)CCCCN,H2O,O=C([C@@H](NC(CN)=O)CCCC[NH3+])NCC(O)=O,0.344006605,421,10
1BF4,ASP,A,16,2.9,3.76,OC(C[C@H](N)C(O)=O)=O,H2O,OC(C[C@@H](C(NCC(O)=O)=O)NC(CN)=O)=O,0.296269336,445,2.9
1BF4,LYS,A,19,10,11.16,N[C@H](C(O)=O)CCCCN,H2O,O=C([C@@H](NC(CN)=O)CCCC[NH3+])NCC(O)=O,0.344006605,468,10
1BF4,ASP,A,35,2.6,3.51,OC(C[C@H](N)C(O)=O)=O,H2O,OC(C[C@@H](C(NCC(O)=O)=O)NC(CN)=O)=O,0.296269336,606,2.6
1BF4,GLU,A,36,5.4,4.07,N[C@H](C(O)=O)CCC(O)=O,H2O,O=C(NCC(O)=O)[C@H](CCC(O)=O)NC(CN)=O,0.296267722,615,5.4
1BF4,GLU,A,48,3.5,3.69,N[C@H](C(O)=O)CCC(O)=O,H2O,O=C(NCC(O)=O)[C@H](CCC(O)=O)NC(CN)=O,0.296267722,689,3.5
1BF4,ASP,A,50,3,3.6,OC(C[C@H](N)C(O)=O)=O,H2O,OC(C[C@@H](C(NCC(O)=O)=O)NC(CN)=O)=O,0.296269336,706,3
1BF4,GLU,A,54,3.2,4.74,N[C@H](C(O)=O)CCC(O)=O,H2O,O=C(NCC(O)=O)[C@H](CCC(O)=O)NC(CN)=O,0.296267722,736,3.2
1BHC,ASP,J,3,3.55,3.81,OC(C[C@H](N)C(O)=O)=O,H2O,OC(C[C@@H](C(NCC(O)=O)=O)NC(CN)=O)=O,0.296269336,4021,3.55
1BHC,GLU,J,7,3.85,3.78,N[C@H](C(O)=O)CCC(O)=O,H2O,O=C(NCC(O)=O)[C@H](CCC(O)=O)NC(CN)=O,0.296267722,4055,3.85
1BHC,LYS,J,15,10.43,10.51,N[C@H](C(O)=O)CCCCN,H2O,O=C([C@@H](NC(CN)=O)CCCC[NH3+])NCC(O)=O,0.344006605,4114,10.43
1BHC,LYS,J,26,10.44,10.75,N[C@H](C(O)=O)CCCCN,H2O,O=C([C@@H](NC(CN)=O)CCCC[NH3+])NCC(O)=O,0.344006605,4214,10.44
1BHC,LYS,J,41,10.75,10.77,N[C@H](C(O)=O)CCCCN,H2O,O=C([C@@H](NC(CN)=O)CCCC[NH3+])NCC(O)=O,0.344006605,4322,10.75
1BHC,LYS,J,46,10.35,10.54,N[C@H](C(O)=O)CCCCN,H2O,O=C([C@@H](NC(CN)=O)CCCC[NH3+])NCC(O)=O,0.344006605,4369,10.35
1BHC,GLU,J,49,3.91,4.28,N[C@H](C(O)=O)CCC(O)=O,H2O,O=C(NCC(O)=O)[C@H](CCC(O)=O)NC(CN)=O,0.296267722,4389,3.91
1BHC,ASP,J,50,3.2,3.52,OC(C[C@H](N)C(O)=O)=O,H2O,OC(C[C@@H](C(NCC(O)=O)=O)NC(CN)=O)=O,0.296269336,4397,3.2
1BNI,ASP,B,8,3.3,3.4,OC(C[C@H](N)C(O)=O)=O,H2O,OC(C[C@@H](C(NCC(O)=O)=O)NC(CN)=O)=O,0.296269336,899,3.3
1BNI,ASP,B,12,3.8,3.38,OC(C[C@H](N)C(O)=O)=O,H2O,OC(C[C@@H](C(NCC(O)=O)=O)NC(CN)=O)=O,0.296269336,923,3.8
1BNI,HIS,B,18,7.73,6.65,N[C@H](C(O)=O)CC1=CNC=N1,H2O,O=C([C@@H](NC(CN)=O)CC1=CNC=[NH+]1)NCC(O)=O,0.311248158,978,7.73
1BNI,ASP,B,22,3.3,3.63,OC(C[C@H](N)C(O)=O)=O,H2O,OC(C[C@@H](C(NCC(O)=O)=O)NC(CN)=O)=O,0.296269336,1013,3.3
1BNI,GLU,B,29,3.75,4.35,N[C@H](C(O)=O)CCC(O)=O,H2O,O=C(NCC(O)=O)[C@H](CCC(O)=O)NC(CN)=O,0.296267722,1072,3.75
1BNI,ASP,B,44,3.5,3.75,OC(C[C@H](N)C(O)=O)=O,H2O,OC(C[C@@H](C(NCC(O)=O)=O)NC(CN)=O)=O,0.296269336,1177,3.5
1BNI,GLU,B,73,2.2,3.48,N[C@H](C(O)=O)CCC(O)=O,H2O,O=C(NCC(O)=O)[C@H](CCC(O)=O)NC(CN)=O,0.296267722,1380,2.2
1BNI,ASP,B,75,2.8,2.04,OC(C[C@H](N)C(O)=O)=O,H2O,OC(C[C@@H](C(NCC(O)=O)=O)NC(CN)=O)=O,0.296269336,1393,2.8
1BNI,ASP,B,86,4.2,3.42,OC(C[C@H](N)C(O)=O)=O,H2O,OC(C[C@@H](C(NCC(O)=O)=O)NC(CN)=O)=O,0.296269336,1482,4.2
1BNI,HIS,B,102,6.3,6.24,N[C@H](C(O)=O)CC1=CNC=N1,H2O,O=C([C@@H](NC(CN)=O)CC1=CNC=[NH+]1)NCC(O)=O,0.311248158,1621,6.3
1BNJ,ASP,A,8,3.3,3.25,OC(C[C@H](N)C(O)=O)=O,H2O,OC(C[C@@H](C(NCC(O)=O)=O)NC(CN)=O)=O,0.296269336,49,3.3
1BNJ,ASP,A,12,3.8,3.24,OC(C[C@H](N)C(O)=O)=O,H2O,OC(C[C@@H](C(NCC(O)=O)=O)NC(CN)=O)=O,0.296269336,73,3.8
1BNJ,HIS,A,18,7.73,6.78,N[C@H](C(O)=O)CC1=CNC=N1,H2O,O=C([C@@H](NC(CN)=O)CC1=CNC=[NH+]1)NCC(O)=O,0.311248158,128,7.73
1BNJ,ASP,A,22,3.3,3.68,OC(C[C@H](N)C(O)=O)=O,H2O,OC(C[C@@H](C(NCC(O)=O)=O)NC(CN)=O)=O,0.296269336,163,3.3
1BNJ,GLU,A,29,3.75,4.32,N[C@H](C(O)=O)CCC(O)=O,H2O,O=C(NCC(O)=O)[C@H](CCC(O)=O)NC(CN)=O,0.296267722,222,3.75
1BNJ,ASP,A,44,3.5,3.8,OC(C[C@H](N)C(O)=O)=O,H2O,OC(C[C@@H](C(NCC(O)=O)=O)NC(CN)=O)=O,0.296269336,327,3.5
1BNJ,GLU,A,73,2.2,3.72,N[C@H](C(O)=O)CCC(O)=O,H2O,O=C(NCC(O)=O)[C@H](CCC(O)=O)NC(CN)=O,0.296267722,541,2.2
1BNJ,ASP,A,75,2.8,2.05,OC(C[C@H](N)C(O)=O)=O,H2O,OC(C[C@@H](C(NCC(O)=O)=O)NC(CN)=O)=O,0.296269336,554,2.8
1BNJ,ASP,A,86,4.2,3.29,OC(C[C@H](N)C(O)=O)=O,H2O,OC(C[C@@H](C(NCC(O)=O)=O)NC(CN)=O)=O,0.296269336,643,4.2
1BNJ,HIS,A,102,6.3,6.21,N[C@H](C(O)=O)CC1=CNC=N1,H2O,O=C([C@@H](NC(CN)=O)CC1=CNC=[NH+]1)NCC(O)=O,0.311248158,782,6.3
1BNR,ASP,A,8,3.3,3.21,OC(C[C@H](N)C(O)=O)=O,H2O,OC(C[C@@H](C(NCC(O)=O)=O)NC(CN)=O)=O,0.296269336,62,3.3
1BNR,ASP,A,12,3.8,3.46,OC(C[C@H](N)C(O)=O)=O,H2O,OC(C[C@@H](C(NCC(O)=O)=O)NC(CN)=O)=O,0.296269336,86,3.8
1BNR,HIS,A,18,7.73,6.65,N[C@H](C(O)=O)CC1=CNC=N1,H2O,O=C([C@@H](NC(CN)=O)CC1=CNC=[NH+]1)NCC(O)=O,0.311248158,141,7.73
1BNR,ASP,A,22,3.3,3.82,OC(C[C@H](N)C(O)=O)=O,H2O,OC(C[C@@H](C(NCC(O)=O)=O)NC(CN)=O)=O,0.296269336,176,3.3
1BNR,GLU,A,29,3.75,4.45,N[C@H](C(O)=O)CCC(O)=O,H2O,O=C(NCC(O)=O)[C@H](CCC(O)=O)NC(CN)=O,0.296267722,235,3.75
1BNR,ASP,A,44,3.5,3.89,OC(C[C@H](N)C(O)=O)=O,H2O,OC(C[C@@H](C(NCC(O)=O)=O)NC(CN)=O)=O,0.296269336,340,3.5
1BNR,GLU,A,60,3,4.11,N[C@H](C(O)=O)CCC(O)=O,H2O,O=C(NCC(O)=O)[C@H](CCC(O)=O)NC(CN)=O,0.296267722,455,3
1BNR,GLU,A,73,2.2,3.63,N[C@H](C(O)=O)CCC(O)=O,H2O,O=C(NCC(O)=O)[C@H](CCC(O)=O)NC(CN)=O,0.296267722,558,2.2
1BNR,ASP,A,75,2.8,2.85,OC(C[C@H](N)C(O)=O)=O,H2O,OC(C[C@@H](C(NCC(O)=O)=O)NC(CN)=O)=O,0.296269336,571,2.8
1BNR,ASP,A,86,4.2,3.55,OC(C[C@H](N)C(O)=O)=O,H2O,OC(C[C@@H](C(NCC(O)=O)=O)NC(CN)=O)=O,0.296269336,660,4.2
1BNR,HIS,A,102,6.3,5.8,N[C@H](C(O)=O)CC1=CNC=N1,H2O,O=C([C@@H](NC(CN)=O)CC1=CNC=[NH+]1)NCC(O)=O,0.311248158,799,6.3
1BPI,ASP,A,3,3.55,3.48,OC(C[C@H](N)C(O)=O)=O,H2O,OC(C[C@@H](C(NCC(O)=O)=O)NC(CN)=O)=O,0.296269336,25,3.55
1BPI,GLU,A,7,3.85,4,N[C@H](C(O)=O)CCC(O)=O,H2O,O=C(NCC(O)=O)[C@H](CCC(O)=O)NC(CN)=O,0.296267722,59,3.85
1BPI,LYS,A,15,10.43,10.77,N[C@H](C(O)=O)CCCCN,H2O,O=C([C@@H](NC(CN)=O)CCCC[NH3+])NCC(O)=O,0.344006605,118,10.43
1BPI,LYS,A,26,10.44,10.72,N[C@H](C(O)=O)CCCCN,H2O,O=C([C@@H](NC(CN)=O)CCCC[NH3+])NCC(O)=O,0.344006605,218,10.44
1BPI,LYS,A,41,10.75,10.78,N[C@H](C(O)=O)CCCCN,H2O,O=C([C@@H](NC(CN)=O)CCCC[NH3+])NCC(O)=O,0.344006605,326,10.75
1BPI,LYS,A,46,10.35,10.49,N[C@H](C(O)=O)CCCCN,H2O,O=C([C@@H](NC(CN)=O)CCCC[NH3+])NCC(O)=O,0.344006605,373,10.35
1BPI,GLU,A,49,3.91,4.17,N[C@H](C(O)=O)CCC(O)=O,H2O,O=C(NCC(O)=O)[C@H](CCC(O)=O)NC(CN)=O,0.296267722,393,3.91
1BPI,ASP,A,50,3.2,3.3,OC(C[C@H](N)C(O)=O)=O,H2O,OC(C[C@@H](C(NCC(O)=O)=O)NC(CN)=O)=O,0.296269336,401,3.2
1BUS,ASP,A,6,4,3.71,OC(C[C@H](N)C(O)=O)=O,H2O,OC(C[C@@H](C(NCC(O)=O)=O)NC(CN)=O)=O,0.296269336,40,4
1BUS,GLU,A,9,4.3,4.46,N[C@H](C(O)=O)CCC(O)=O,H2O,O=C(NCC(O)=O)[C@H](CCC(O)=O)NC(CN)=O,0.296267722,60,4.3
1BUS,ASP,A,12,3.6,3.53,OC(C[C@H](N)C(O)=O)=O,H2O,OC(C[C@@H](C(NCC(O)=O)=O)NC(CN)=O)=O,0.296269336,88,3.6
1BUS,GLU,A,20,4.1,3.7,N[C@H](C(O)=O)CCC(O)=O,H2O,O=C(NCC(O)=O)[C@H](CCC(O)=O)NC(CN)=O,0.296267722,156,4.1
1BVI,ASP,B,3,3.54,3.75,OC(C[C@H](N)C(O)=O)=O,H2O,OC(C[C@@H](C(NCC(O)=O)=O)NC(CN)=O)=O,0.296269336,795,3.54
1BVI,ASP,B,15,3.52,3.92,OC(C[C@H](N)C(O)=O)=O,H2O,OC(C[C@@H](C(NCC(O)=O)=O)NC(CN)=O)=O,0.296269336,882,3.52
1BVI,HIS,B,27,7,7.28,N[C@H](C(O)=O)CC1=CNC=N1,H2O,O=C([C@@H](NC(CN)=O)CC1=CNC=[NH+]1)NCC(O)=O,0.311248158,966,7
1BVI,GLU,B,28,5.61,4.52,N[C@H](C(O)=O)CCC(O)=O,H2O,O=C(NCC(O)=O)[C@H](CCC(O)=O)NC(CN)=O,0.296267722,978,5.61
1BVI,ASP,B,29,4.26,3.54,OC(C[C@H](N)C(O)=O)=O,H2O,OC(C[C@@H](C(NCC(O)=O)=O)NC(CN)=O)=O,0.296269336,986,4.26
1BVI,GLU,B,31,5.36,4.82,N[C@H](C(O)=O)CCC(O)=O,H2O,O=C(NCC(O)=O)[C@H](CCC(O)=O)NC(CN)=O,0.296267722,999,5.36
1BVI,HIS,B,40,7.7,6.77,N[C@H](C(O)=O)CC1=CNC=N1,H2O,O=C([C@@H](NC(CN)=O)CC1=CNC=[NH+]1)NCC(O)=O,0.311248158,1063,7.7
1BVI,GLU,B,46,3.62,4.09,N[C@H](C(O)=O)CCC(O)=O,H2O,O=C(NCC(O)=O)[C@H](CCC(O)=O)NC(CN)=O,0.296267722,1124,3.62
1BVI,ASP,B,49,4.22,4.15,OC(C[C@H](N)C(O)=O)=O,H2O,OC(C[C@@H](C(NCC(O)=O)=O)NC(CN)=O)=O,0.296269336,1147,4.22
1BVI,GLU,B,58,3.96,3.46,N[C@H](C(O)=O)CCC(O)=O,H2O,O=C(NCC(O)=O)[C@H](CCC(O)=O)NC(CN)=O,0.296267722,1223,3.96
1BVI,ASP,B,66,3.9,3.87,OC(C[C@H](N)C(O)=O)=O,H2O,OC(C[C@@H](C(NCC(O)=O)=O)NC(CN)=O)=O,0.296269336,1284,3.9
1BVI,ASP,B,76,0.5,3.39,OC(C[C@H](N)C(O)=O)=O,H2O,OC(C[C@@H](C(NCC(O)=O)=O)NC(CN)=O)=O,0.296269336,1347,0.5
1BVI,GLU,B,82,3.27,3.66,N[C@H](C(O)=O)CCC(O)=O,H2O,O=C(NCC(O)=O)[C@H](CCC(O)=O)NC(CN)=O,0.296267722,1400,3.27
1BVI,HIS,B,92,7.3,6.74,N[C@H](C(O)=O)CC1=CNC=N1,H2O,O=C([C@@H](NC(CN)=O)CC1=CNC=[NH+]1)NCC(O)=O,0.311248158,1471,7.3
1C8C,LYS,A,7,11.5,10.68,N[C@H](C(O)=O)CCCCN,H2O,O=C([C@@H](NC(CN)=O)CCCC[NH3+])NCC(O)=O,0.344006605,379,11.5
1C8C,GLU,A,11,3.5,4.36,N[C@H](C(O)=O)CCC(O)=O,H2O,O=C(NCC(O)=O)[C@H](CCC(O)=O)NC(CN)=O,0.296267722,413,3.5
1C8C,GLU,A,12,3.5,4.01,N[C@H](C(O)=O)CCC(O)=O,H2O,O=C(NCC(O)=O)[C@H](CCC(O)=O)NC(CN)=O,0.296267722,422,3.5
1C8C,LYS,A,13,10,10.97,N[C@H](C(O)=O)CCCCN,H2O,O=C([C@@H](NC(CN)=O)CCCC[NH3+])NCC(O)=O,0.344006605,431,10
1C8C,ASP,A,16,2.9,3.76,OC(C[C@H](N)C(O)=O)=O,H2O,OC(C[C@@H](C(NCC(O)=O)=O)NC(CN)=O)=O,0.296269336,455,2.9
1C8C,LYS,A,19,10,11.07,N[C@H](C(O)=O)CCCCN,H2O,O=C([C@@H](NC(CN)=O)CCCC[NH3+])NCC(O)=O,0.344006605,478,10
1C8C,ASP,A,35,2.6,3.53,OC(C[C@H](N)C(O)=O)=O,H2O,OC(C[C@@H](C(NCC(O)=O)=O)NC(CN)=O)=O,0.296269336,616,2.6
1C8C,GLU,A,36,5.4,3.82,N[C@H](C(O)=O)CCC(O)=O,H2O,O=C(NCC(O)=O)[C@H](CCC(O)=O)NC(CN)=O,0.296267722,625,5.4
1C8C,GLU,A,48,3.5,3.75,N[C@H](C(O)=O)CCC(O)=O,H2O,O=C(NCC(O)=O)[C@H](CCC(O)=O)NC(CN)=O,0.296267722,699,3.5
1C8C,ASP,A,50,3,3.81,OC(C[C@H](N)C(O)=O)=O,H2O,OC(C[C@@H](C(NCC(O)=O)=O)NC(CN)=O)=O,0.296269336,716,3
1C8C,GLU,A,54,3.2,4.09,N[C@H](C(O)=O)CCC(O)=O,H2O,O=C(NCC(O)=O)[C@H](CCC(O)=O)NC(CN)=O,0.296267722,746,3.2
1CDC,ASP,A,25,3.5,3.74,OC(C[C@H](N)C(O)=O)=O,H2O,OC(C[C@@H](C(NCC(O)=O)=O)NC(CN)=O)=O,0.296269336,923,3.5
1CDC,ASP,A,26,3.6,3.82,OC(C[C@H](N)C(O)=O)=O,H2O,OC(C[C@@H](C(NCC(O)=O)=O)NC(CN)=O)=O,0.296269336,931,3.6
1CDC,ASP,A,28,3.6,2.84,OC(C[C@H](N)C(O)=O)=O,H2O,OC(C[C@@H](C(NCC(O)=O)=O)NC(CN)=O)=O,0.296269336,947,3.6
1CDC,GLU,A,29,4.4,4.09,N[C@H](C(O)=O)CCC(O)=O,H2O,O=C(NCC(O)=O)[C@H](CCC(O)=O)NC(CN)=O,0.296267722,956,4.4
1CDC,GLU,A,33,4.2,3.95,N[C@H](C(O)=O)CCC(O)=O,H2O,O=C(NCC(O)=O)[C@H](CCC(O)=O)NC(CN)=O,0.296267722,997,4.2
1CDC,GLU,A,41,6.7,4.41,N[C@H](C(O)=O)CCC(O)=O,H2O,O=C(NCC(O)=O)[C@H](CCC(O)=O)NC(CN)=O,0.296267722,1054,6.7
1CDC,GLU,A,56,3.9,3.74,N[C@H](C(O)=O)CCC(O)=O,H2O,O=C(NCC(O)=O)[C@H](CCC(O)=O)NC(CN)=O,0.296267722,1181,3.9
1CDC,ASP,A,62,4.1,3.81,OC(C[C@H](N)C(O)=O)=O,H2O,OC(C[C@@H](C(NCC(O)=O)=O)NC(CN)=O)=O,0.296269336,1222,4.1
1CDC,ASP,A,71,3.2,3.93,OC(C[C@H](N)C(O)=O)=O,H2O,OC(C[C@@H](C(NCC(O)=O)=O)NC(CN)=O)=O,0.296269336,1298,3.2
1CDC,ASP,A,72,4.1,3.73,OC(C[C@H](N)C(O)=O)=O,H2O,OC(C[C@@H](C(NCC(O)=O)=O)NC(CN)=O)=O,0.296269336,1306,4.1
1CDC,ASP,A,94,3.9,3.42,OC(C[C@H](N)C(O)=O)=O,H2O,OC(C[C@@H](C(NCC(O)=O)=O)NC(CN)=O)=O,0.296269336,1473,3.9
1CDC,GLU,A,99,4.2,4.54,N[C@H](C(O)=O)CCC(O)=O,H2O,O=C(NCC(O)=O)[C@H](CCC(O)=O)NC(CN)=O,0.296267722,1517,4.2
1COA,GLU,I,23,3.2,4.09,N[C@H](C(O)=O)CCC(O)=O,H2O,O=C(NCC(O)=O)[C@H](CCC(O)=O)NC(CN)=O,0.296267722,32,3.2
1COA,GLU,I,26,3.3,3.63,N[C@H](C(O)=O)CCC(O)=O,H2O,O=C(NCC(O)=O)[C@H](CCC(O)=O)NC(CN)=O,0.296267722,62,3.3
1COA,GLU,I,33,4.2,4.21,N[C@H](C(O)=O)CCC(O)=O,H2O,O=C(NCC(O)=O)[C@H](CCC(O)=O)NC(CN)=O,0.296267722,112,4.2
1COA,GLU,I,34,3.8,4.23,N[C@H](C(O)=O)CCC(O)=O,H2O,O=C(NCC(O)=O)[C@H](CCC(O)=O)NC(CN)=O,0.296267722,121,3.8
1COA,ASP,I,42,3.3,3.59,OC(C[C@H](N)C(O)=O)=O,H2O,OC(C[C@@H](C(NCC(O)=O)=O)NC(CN)=O)=O,0.296269336,184,3.3
1COA,GLU,I,45,3.9,3.97,N[C@H](C(O)=O)CCC(O)=O,H2O,O=C(NCC(O)=O)[C@H](CCC(O)=O)NC(CN)=O,0.296267722,209,3.9
1COA,GLU,I,60,3.5,4.02,N[C@H](C(O)=O)CCC(O)=O,H2O,O=C(NCC(O)=O)[C@H](CCC(O)=O)NC(CN)=O,0.296267722,318,3.5
1COA,ASP,I,64,3.8,2.8,OC(C[C@H](N)C(O)=O)=O,H2O,OC(C[C@@H](C(NCC(O)=O)=O)NC(CN)=O)=O,0.296269336,357,3.8
1COA,ASP,I,71,2.8,3.3,OC(C[C@H](N)C(O)=O)=O,H2O,OC(C[C@@H](C(NCC(O)=O)=O)NC(CN)=O)=O,0.296269336,420,2.8
1COA,ASP,I,74,5,3.95,OC(C[C@H](N)C(O)=O)=O,H2O,OC(C[C@@H](C(NCC(O)=O)=O)NC(CN)=O)=O,0.296269336,445,5
1CVO,GLU,A,17,4,4.53,N[C@H](C(O)=O)CCC(O)=O,H2O,O=C(NCC(O)=O)[C@H](CCC(O)=O)NC(CN)=O,0.296267722,140,4
1CVO,ASP,A,42,3.2,3.85,OC(C[C@H](N)C(O)=O)=O,H2O,OC(C[C@@H](C(NCC(O)=O)=O)NC(CN)=O)=O,0.296269336,336,3.2
1CVO,ASP,A,59,2.3,3.5,OC(C[C@H](N)C(O)=O)=O,H2O,OC(C[C@@H](C(NCC(O)=O)=O)NC(CN)=O)=O,0.296269336,462,2.3
1D0D,ASP,B,3,3.55,3.74,OC(C[C@H](N)C(O)=O)=O,H2O,OC(C[C@@H](C(NCC(O)=O)=O)NC(CN)=O)=O,0.296269336,514,3.55
1D0D,GLU,B,7,3.85,4.19,N[C@H](C(O)=O)CCC(O)=O,H2O,O=C(NCC(O)=O)[C@H](CCC(O)=O)NC(CN)=O,0.296267722,548,3.85
1D0D,LYS,B,15,10.43,10.71,N[C@H](C(O)=O)CCCCN,H2O,O=C([C@@H](NC(CN)=O)CCCC[NH3+])NCC(O)=O,0.344006605,607,10.43
1D0D,LYS,B,26,10.44,10.76,N[C@H](C(O)=O)CCCCN,H2O,O=C([C@@H](NC(CN)=O)CCCC[NH3+])NCC(O)=O,0.344006605,707,10.44
1D0D,LYS,B,41,10.75,10.75,N[C@H](C(O)=O)CCCCN,H2O,O=C([C@@H](NC(CN)=O)CCCC[NH3+])NCC(O)=O,0.344006605,815,10.75
1D0D,LYS,B,46,10.35,10.51,N[C@H](C(O)=O)CCCCN,H2O,O=C([C@@H](NC(CN)=O)CCCC[NH3+])NCC(O)=O,0.344006605,862,10.35
1D0D,GLU,B,49,3.91,4.24,N[C@H](C(O)=O)CCC(O)=O,H2O,O=C(NCC(O)=O)[C@H](CCC(O)=O)NC(CN)=O,0.296267722,882,3.91
1D0D,ASP,B,50,3.2,3.05,OC(C[C@H](N)C(O)=O)=O,H2O,OC(C[C@@H](C(NCC(O)=O)=O)NC(CN)=O)=O,0.296269336,890,3.2
1DE3,ASP,A,9,3.9,3.55,OC(C[C@H](N)C(O)=O)=O,H2O,OC(C[C@@H](C(NCC(O)=O)=O)NC(CN)=O)=O,0.296269336,69,3.9
1DE3,GLU,A,19,4.6,4.06,N[C@H](C(O)=O)CCC(O)=O,H2O,O=C(NCC(O)=O)[C@H](CCC(O)=O)NC(CN)=O,0.296267722,156,4.6
1DE3,GLU,A,31,4.6,4.08,N[C@H](C(O)=O)CCC(O)=O,H2O,O=C(NCC(O)=O)[C@H](CCC(O)=O)NC(CN)=O,0.296267722,259,4.6
1DE3,HIS,A,35,6.3,6.56,N[C@H](C(O)=O)CC1=CNC=N1,H2O,O=C([C@@H](NC(CN)=O)CC1=CNC=[NH+]1)NCC(O)=O,0.311248158,286,6.3
1DE3,HIS,A,36,6.8,6.76,N[C@H](C(O)=O)CC1=CNC=N1,H2O,O=C([C@@H](NC(CN)=O)CC1=CNC=[NH+]1)NCC(O)=O,0.311248158,296,6.8
1DE3,HIS,A,50,7.7,6.44,N[C@H](C(O)=O)CC1=CNC=N1,H2O,O=C([C@@H](NC(CN)=O)CC1=CNC=[NH+]1)NCC(O)=O,0.311248158,395,7.7
1DE3,ASP,A,57,4.2,3.75,OC(C[C@H](N)C(O)=O)=O,H2O,OC(C[C@@H](C(NCC(O)=O)=O)NC(CN)=O)=O,0.296269336,462,4.2
1DE3,ASP,A,59,4,3.03,OC(C[C@H](N)C(O)=O)=O,H2O,OC(C[C@@H](C(NCC(O)=O)=O)NC(CN)=O)=O,0.296269336,474,4
1DE3,ASP,A,75,3.8,3.13,OC(C[C@H](N)C(O)=O)=O,H2O,OC(C[C@@H](C(NCC(O)=O)=O)NC(CN)=O)=O,0.296269336,595,3.8
1DE3,HIS,A,82,7.3,7.5,N[C@H](C(O)=O)CC1=CNC=N1,H2O,O=C([C@@H](NC(CN)=O)CC1=CNC=[NH+]1)NCC(O)=O,0.311248158,650,7.3