PDB_ID,Residue,Chain ID,Residue ID,Expt. pKa,Cal. pKa,SMILES_Residue,solvent,SMILES,H_Gasteiger_Charge,DH_Index,pKa
9RAT,ASP,A,53,3.9,3.76,OC(C[C@H](N)C(O)=O)=O,H2O,OC(C[C@@H](C(NCC(O)=O)=O)NC(CN)=O)=O,0.296269336,411,3.9
9RAT,ASP,A,83,3.5,2.98,OC(C[C@H](N)C(O)=O)=O,H2O,OC(C[C@@H](C(NCC(O)=O)=O)NC(CN)=O)=O,0.296269336,635,3.5
9RAT,GLU,A,86,4.1,4.25,N[C@H](C(O)=O)CCC(O)=O,H2O,O=C(NCC(O)=O)[C@H](CCC(O)=O)NC(CN)=O,0.296267722,661,4.1
9RAT,HIS,A,105,6.6,6.48,N[C@H](C(O)=O)CC1=CNC=N1,H2O,O=C([C@@H](NC(CN)=O)CC1=CNC=[NH+]1)NCC(O)=O,0.311248158,804,6.6
9RAT,GLU,A,111,3.5,4.21,N[C@H](C(O)=O)CCC(O)=O,H2O,O=C(NCC(O)=O)[C@H](CCC(O)=O)NC(CN)=O,0.296267722,850,3.5
9RAT,HIS,A,119,6.1,6.49,N[C@H](C(O)=O)CC1=CNC=N1,H2O,O=C([C@@H](NC(CN)=O)CC1=CNC=[NH+]1)NCC(O)=O,0.311248158,909,6.1
9RAT,ASP,A,121,3.1,2.78,OC(C[C@H](N)C(O)=O)=O,H2O,OC(C[C@@H](C(NCC(O)=O)=O)NC(CN)=O)=O,0.296269336,931,3.1
1QLP,CYS,A,232,6.86,5.47,SC[C@H](N)C(O)=O,H2O,SC[C@@H](C(NCC(O)=O)=O)NC(CN)=O,0.102304044,1695,6.86
1P5F,CYS,A,106,5.4,6.04,SC[C@H](N)C(O)=O,H2O,SC[C@@H](C(NCC(O)=O)=O)NC(CN)=O,0.102304044,760,5.4
1I0E,CYS,A,283,5.6,5.93,SC[C@H](N)C(O)=O,H2O,SC[C@@H](C(NCC(O)=O)=O)NC(CN)=O,0.102304044,2213,5.6
2L90,CYS,A,72,7.2,6.61,SC[C@H](N)C(O)=O,H2O,SC[C@@H](C(NCC(O)=O)=O)NC(CN)=O,0.102304044,368,7.2
1EH6,CYS,A,145,5.3,5.14,SC[C@H](N)C(O)=O,H2O,SC[C@@H](C(NCC(O)=O)=O)NC(CN)=O,0.102304044,1007,5.3
1PPN,CYS,A,25,3.32,5.54,SC[C@H](N)C(O)=O,H2O,SC[C@@H](C(NCC(O)=O)=O)NC(CN)=O,0.102304044,188,3.32
2HNP,CYS,A,215,5.57,3.27,SC[C@H](N)C(O)=O,H2O,SC[C@@H](C(NCC(O)=O)=O)NC(CN)=O,0.102304044,1748,5.57
1PPO,CYS,A,25,2.88,4.52,SC[C@H](N)C(O)=O,H2O,SC[C@@H](C(NCC(O)=O)=O)NC(CN)=O,0.102304044,188,2.88
1YPT,CYS,A,403,4.67,3.76,SC[C@H](N)C(O)=O,H2O,SC[C@@H](C(NCC(O)=O)=O)NC(CN)=O,0.102304044,1641,4.67
1RGG,TYR,A,30,11.3,10.43,N[C@H](C(O)=O)CC1=CC=C(O)C=C1,H2O,O=C(NCC(O)=O)[C@H](CC1=CC=C(C=C1)O)NC(CN)=O,0.29309207,213,11.3
1RGG,TYR,A,49,10.6,10.63,N[C@H](C(O)=O)CC1=CC=C(O)C=C1,H2O,O=C(NCC(O)=O)[C@H](CC1=CC=C(C=C1)O)NC(CN)=O,0.29309207,364,10.6
1PGB,TYR,A,33,11,10.76,N[C@H](C(O)=O)CC1=CC=C(O)C=C1,H2O,O=C(NCC(O)=O)[C@H](CC1=CC=C(C=C1)O)NC(CN)=O,0.29309207,255,11