PDB_ID,Residue,Chain ID,Residue ID,Expt. pKa,Cal. pKa,SMILES_Residue,solvent,SMILES,H_Gasteiger_Charge,DH_Index,pKa
1DE3,ASP,A,85,3.8,3.78,OC(C[C@H](N)C(O)=O)=O,H2O,OC(C[C@@H](C(NCC(O)=O)=O)NC(CN)=O)=O,0.296269336,676,3.8
1DE3,HIS,A,92,6.9,6.2,N[C@H](C(O)=O)CC1=CNC=N1,H2O,O=C([C@@H](NC(CN)=O)CC1=CNC=[NH+]1)NCC(O)=O,0.311248158,723,6.9
1DE3,GLU,A,96,5.2,3.36,N[C@H](C(O)=O)CCC(O)=O,H2O,O=C(NCC(O)=O)[C@H](CCC(O)=O)NC(CN)=O,0.296267722,763,5.2
1DE3,HIS,A,104,6.5,6.52,N[C@H](C(O)=O)CC1=CNC=N1,H2O,O=C([C@@H](NC(CN)=O)CC1=CNC=[NH+]1)NCC(O)=O,0.311248158,825,6.5
1DE3,GLU,A,115,4.9,4.08,N[C@H](C(O)=O)CCC(O)=O,H2O,O=C(NCC(O)=O)[C@H](CCC(O)=O)NC(CN)=O,0.296267722,925,4.9
1DE3,HIS,A,137,5.8,6.06,N[C@H](C(O)=O)CC1=CNC=N1,H2O,O=C([C@@H](NC(CN)=O)CC1=CNC=[NH+]1)NCC(O)=O,0.311248158,1093,5.8
1DE3,GLU,A,140,4.2,4.02,N[C@H](C(O)=O)CCC(O)=O,H2O,O=C(NCC(O)=O)[C@H](CCC(O)=O)NC(CN)=O,0.296267722,1121,4.2
1DE3,GLU,A,144,4.3,4.24,N[C@H](C(O)=O)CCC(O)=O,H2O,O=C(NCC(O)=O)[C@H](CCC(O)=O)NC(CN)=O,0.296267722,1151,4.3
1DE3,HIS,A,150,7.6,6.26,N[C@H](C(O)=O)CC1=CNC=N1,H2O,O=C([C@@H](NC(CN)=O)CC1=CNC=[NH+]1)NCC(O)=O,0.311248158,1195,7.6
1DG9,HIS,A,66,8.3,7,N[C@H](C(O)=O)CC1=CNC=N1,H2O,O=C([C@@H](NC(CN)=O)CC1=CNC=[NH+]1)NCC(O)=O,0.311248158,504,8.3
1DG9,HIS,A,72,9.2,6.68,N[C@H](C(O)=O)CC1=CNC=N1,H2O,O=C([C@@H](NC(CN)=O)CC1=CNC=[NH+]1)NCC(O)=O,0.311248158,546,9.2
1DWR,HIS,A,36,7.8,6.65,N[C@H](C(O)=O)CC1=CNC=N1,H2O,O=C([C@@H](NC(CN)=O)CC1=CNC=[NH+]1)NCC(O)=O,0.311248158,276,7.8
1DWR,HIS,A,48,5.62,6.49,N[C@H](C(O)=O)CC1=CNC=N1,H2O,O=C([C@@H](NC(CN)=O)CC1=CNC=[NH+]1)NCC(O)=O,0.311248158,383,5.62
1DWR,HIS,A,81,6.94,6.43,N[C@H](C(O)=O)CC1=CNC=N1,H2O,O=C([C@@H](NC(CN)=O)CC1=CNC=[NH+]1)NCC(O)=O,0.311248158,629,6.94
1DWR,HIS,A,113,5.87,6.06,N[C@H](C(O)=O)CC1=CNC=N1,H2O,O=C([C@@H](NC(CN)=O)CC1=CNC=[NH+]1)NCC(O)=O,0.311248158,889,5.87
1DWR,HIS,A,116,6.79,6.29,N[C@H](C(O)=O)CC1=CNC=N1,H2O,O=C([C@@H](NC(CN)=O)CC1=CNC=[NH+]1)NCC(O)=O,0.311248158,914,6.79
1DWR,HIS,A,119,6.56,5.98,N[C@H](C(O)=O)CC1=CNC=N1,H2O,O=C([C@@H](NC(CN)=O)CC1=CNC=[NH+]1)NCC(O)=O,0.311248158,939,6.56
1EGF,ASP,A,11,3.9,4.15,OC(C[C@H](N)C(O)=O)=O,H2O,OC(C[C@@H](C(NCC(O)=O)=O)NC(CN)=O)=O,0.296269336,81,3.9
1EGF,GLU,A,24,4.1,4.54,N[C@H](C(O)=O)CCC(O)=O,H2O,O=C(NCC(O)=O)[C@H](CCC(O)=O)NC(CN)=O,0.296267722,175,4.1
1EGF,ASP,A,27,4,3.8,OC(C[C@H](N)C(O)=O)=O,H2O,OC(C[C@@H](C(NCC(O)=O)=O)NC(CN)=O)=O,0.296269336,197,4
1EGF,ASP,A,40,3.6,3.68,OC(C[C@H](N)C(O)=O)=O,H2O,OC(C[C@@H](C(NCC(O)=O)=O)NC(CN)=O)=O,0.296269336,291,3.6
1EGF,ASP,A,46,3.8,3.63,OC(C[C@H](N)C(O)=O)=O,H2O,OC(C[C@@H](C(NCC(O)=O)=O)NC(CN)=O)=O,0.296269336,343,3.8
1EGF,GLU,A,51,4,4.36,N[C@H](C(O)=O)CCC(O)=O,H2O,O=C(NCC(O)=O)[C@H](CCC(O)=O)NC(CN)=O,0.296267722,399,4
1EPG,ASP,A,11,3.9,4.14,OC(C[C@H](N)C(O)=O)=O,H2O,OC(C[C@@H](C(NCC(O)=O)=O)NC(CN)=O)=O,0.296269336,81,3.9
1EPG,GLU,A,24,4.1,4.34,N[C@H](C(O)=O)CCC(O)=O,H2O,O=C(NCC(O)=O)[C@H](CCC(O)=O)NC(CN)=O,0.296267722,175,4.1
1EPG,ASP,A,27,4,3.91,OC(C[C@H](N)C(O)=O)=O,H2O,OC(C[C@@H](C(NCC(O)=O)=O)NC(CN)=O)=O,0.296269336,197,4
1EPG,ASP,A,40,3.6,3.65,OC(C[C@H](N)C(O)=O)=O,H2O,OC(C[C@@H](C(NCC(O)=O)=O)NC(CN)=O)=O,0.296269336,291,3.6
1EPG,ASP,A,46,3.8,3.5,OC(C[C@H](N)C(O)=O)=O,H2O,OC(C[C@@H](C(NCC(O)=O)=O)NC(CN)=O)=O,0.296269336,343,3.8
1EPG,GLU,A,51,4,4.7,N[C@H](C(O)=O)CCC(O)=O,H2O,O=C(NCC(O)=O)[C@H](CCC(O)=O)NC(CN)=O,0.296267722,399,4
1EPH,ASP,A,11,3.9,4.05,OC(C[C@H](N)C(O)=O)=O,H2O,OC(C[C@@H](C(NCC(O)=O)=O)NC(CN)=O)=O,0.296269336,81,3.9
1EPH,GLU,A,24,4.1,4.23,N[C@H](C(O)=O)CCC(O)=O,H2O,O=C(NCC(O)=O)[C@H](CCC(O)=O)NC(CN)=O,0.296267722,175,4.1
1EPH,ASP,A,27,4,4.18,OC(C[C@H](N)C(O)=O)=O,H2O,OC(C[C@@H](C(NCC(O)=O)=O)NC(CN)=O)=O,0.296269336,197,4
1EPH,ASP,A,40,3.6,3.55,OC(C[C@H](N)C(O)=O)=O,H2O,OC(C[C@@H](C(NCC(O)=O)=O)NC(CN)=O)=O,0.296269336,291,3.6
1EPH,ASP,A,46,3.8,3.45,OC(C[C@H](N)C(O)=O)=O,H2O,OC(C[C@@H](C(NCC(O)=O)=O)NC(CN)=O)=O,0.296269336,343,3.8
1EPH,GLU,A,51,4,4.66,N[C@H](C(O)=O)CCC(O)=O,H2O,O=C(NCC(O)=O)[C@H](CCC(O)=O)NC(CN)=O,0.296267722,399,4
1FW7,ASP,A,8,3.3,3.3,OC(C[C@H](N)C(O)=O)=O,H2O,OC(C[C@@H](C(NCC(O)=O)=O)NC(CN)=O)=O,0.296269336,62,3.3
1FW7,ASP,A,12,3.8,3.74,OC(C[C@H](N)C(O)=O)=O,H2O,OC(C[C@@H](C(NCC(O)=O)=O)NC(CN)=O)=O,0.296269336,86,3.8
1FW7,HIS,A,18,7.73,6.88,N[C@H](C(O)=O)CC1=CNC=N1,H2O,O=C([C@@H](NC(CN)=O)CC1=CNC=[NH+]1)NCC(O)=O,0.311248158,141,7.73
1FW7,ASP,A,22,3.3,3.03,OC(C[C@H](N)C(O)=O)=O,H2O,OC(C[C@@H](C(NCC(O)=O)=O)NC(CN)=O)=O,0.296269336,176,3.3
1FW7,GLU,A,29,3.75,4.34,N[C@H](C(O)=O)CCC(O)=O,H2O,O=C(NCC(O)=O)[C@H](CCC(O)=O)NC(CN)=O,0.296267722,235,3.75
1FW7,ASP,A,44,3.5,3.84,OC(C[C@H](N)C(O)=O)=O,H2O,OC(C[C@@H](C(NCC(O)=O)=O)NC(CN)=O)=O,0.296269336,340,3.5
1FW7,GLU,A,60,3,4.24,N[C@H](C(O)=O)CCC(O)=O,H2O,O=C(NCC(O)=O)[C@H](CCC(O)=O)NC(CN)=O,0.296267722,455,3
1FW7,GLU,A,73,2.2,3.25,N[C@H](C(O)=O)CCC(O)=O,H2O,O=C(NCC(O)=O)[C@H](CCC(O)=O)NC(CN)=O,0.296267722,558,2.2
1FW7,ASP,A,75,2.8,3.04,OC(C[C@H](N)C(O)=O)=O,H2O,OC(C[C@@H](C(NCC(O)=O)=O)NC(CN)=O)=O,0.296269336,571,2.8
1FW7,ASP,A,86,4.2,3.52,OC(C[C@H](N)C(O)=O)=O,H2O,OC(C[C@@H](C(NCC(O)=O)=O)NC(CN)=O)=O,0.296269336,660,4.2
1FW7,HIS,A,102,6.3,6.28,N[C@H](C(O)=O)CC1=CNC=N1,H2O,O=C([C@@H](NC(CN)=O)CC1=CNC=[NH+]1)NCC(O)=O,0.311248158,799,6.3
1GB1,LYS,A,10,11,10.93,N[C@H](C(O)=O)CCCCN,H2O,O=C([C@@H](NC(CN)=O)CCCC[NH3+])NCC(O)=O,0.344006605,80,11
1GB1,LYS,A,13,11,11.26,N[C@H](C(O)=O)CCCCN,H2O,O=C([C@@H](NC(CN)=O)CCCC[NH3+])NCC(O)=O,0.344006605,104,11
1GB1,GLU,A,15,4.4,4.47,N[C@H](C(O)=O)CCC(O)=O,H2O,O=C(NCC(O)=O)[C@H](CCC(O)=O)NC(CN)=O,0.296267722,117,4.4
1GB1,GLU,A,19,3.7,4.68,N[C@H](C(O)=O)CCC(O)=O,H2O,O=C(NCC(O)=O)[C@H](CCC(O)=O)NC(CN)=O,0.296267722,147,3.7
1GB1,ASP,A,22,2.9,3.32,OC(C[C@H](N)C(O)=O)=O,H2O,OC(C[C@@H](C(NCC(O)=O)=O)NC(CN)=O)=O,0.296269336,167,2.9
1GB1,GLU,A,27,4.5,4.42,N[C@H](C(O)=O)CCC(O)=O,H2O,O=C(NCC(O)=O)[C@H](CCC(O)=O)NC(CN)=O,0.296267722,198,4.5
1GB1,LYS,A,28,10.9,10.85,N[C@H](C(O)=O)CCCCN,H2O,O=C([C@@H](NC(CN)=O)CCCC[NH3+])NCC(O)=O,0.344006605,207,10.9
1GB1,ASP,A,36,3.8,4.01,OC(C[C@H](N)C(O)=O)=O,H2O,OC(C[C@@H](C(NCC(O)=O)=O)NC(CN)=O)=O,0.296269336,276,3.8
1GB1,ASP,A,40,4,3.92,OC(C[C@H](N)C(O)=O)=O,H2O,OC(C[C@@H](C(NCC(O)=O)=O)NC(CN)=O)=O,0.296269336,303,4
1GB1,GLU,A,42,4.4,4.55,N[C@H](C(O)=O)CCC(O)=O,H2O,O=C(NCC(O)=O)[C@H](CCC(O)=O)NC(CN)=O,0.296267722,316,4.4
1GB1,ASP,A,46,3.6,3.69,OC(C[C@H](N)C(O)=O)=O,H2O,OC(C[C@@H](C(NCC(O)=O)=O)NC(CN)=O)=O,0.296269336,357,3.6
1GB1,ASP,A,47,3.4,3.8,OC(C[C@H](N)C(O)=O)=O,H2O,OC(C[C@@H](C(NCC(O)=O)=O)NC(CN)=O)=O,0.296269336,365,3.4
1GB1,GLU,A,56,4,4.47,N[C@H](C(O)=O)CCC(O)=O,H2O,O=C(NCC(O)=O)[C@H](CCC(O)=O)NC(CN)=O,0.296267722,434,4
1GOA,GLU,A,6,4.5,3.77,N[C@H](C(O)=O)CCC(O)=O,H2O,O=C(NCC(O)=O)[C@H](CCC(O)=O)NC(CN)=O,0.296267722,49,4.5
1GOA,ASP,A,10,6.1,3.37,OC(C[C@H](N)C(O)=O)=O,H2O,OC(C[C@@H](C(NCC(O)=O)=O)NC(CN)=O)=O,0.296269336,83,6.1
1GOA,GLU,A,32,3.6,3.57,N[C@H](C(O)=O)CCC(O)=O,H2O,O=C(NCC(O)=O)[C@H](CCC(O)=O)NC(CN)=O,0.296267722,240,3.6
1GOA,GLU,A,48,4.4,3.55,N[C@H](C(O)=O)CCC(O)=O,H2O,O=C(NCC(O)=O)[C@H](CCC(O)=O)NC(CN)=O,0.296267722,370,4.4
1GOA,GLU,A,57,3.2,3.71,N[C@H](C(O)=O)CCC(O)=O,H2O,O=C(NCC(O)=O)[C@H](CCC(O)=O)NC(CN)=O,0.296267722,433,3.2
1GOA,GLU,A,61,3.9,4.05,N[C@H](C(O)=O)CCC(O)=O,H2O,O=C(NCC(O)=O)[C@H](CCC(O)=O)NC(CN)=O,0.296267722,464,3.9
1GOA,HIS,A,62,7,6.49,N[C@H](C(O)=O)CC1=CNC=N1,H2O,O=C([C@@H](NC(CN)=O)CC1=CNC=[NH+]1)NCC(O)=O,0.311248158,471,7
1GOA,GLU,A,64,4.4,4.27,N[C@H](C(O)=O)CCC(O)=O,H2O,O=C(NCC(O)=O)[C@H](CCC(O)=O)NC(CN)=O,0.296267722,489,4.4
1GOA,ASP,A,70,2.6,3.29,OC(C[C@H](N)C(O)=O)=O,H2O,OC(C[C@@H](C(NCC(O)=O)=O)NC(CN)=O)=O,0.296269336,533,2.6
1GOA,HIS,A,83,5.5,6.12,N[C@H](C(O)=O)CC1=CNC=N1,H2O,O=C([C@@H](NC(CN)=O)CC1=CNC=[NH+]1)NCC(O)=O,0.311248158,648,5.5
1GOA,ASP,A,94,3.2,3.18,OC(C[C@H](N)C(O)=O)=O,H2O,OC(C[C@@H](C(NCC(O)=O)=O)NC(CN)=O)=O,0.296269336,749,3.2
1GOA,ASP,A,102,2,2.28,OC(C[C@H](N)C(O)=O)=O,H2O,OC(C[C@@H](C(NCC(O)=O)=O)NC(CN)=O)=O,0.296269336,813,2
1GOA,ASP,A,108,3.2,2.84,OC(C[C@H](N)C(O)=O)=O,H2O,OC(C[C@@H](C(NCC(O)=O)=O)NC(CN)=O)=O,0.296269336,871,3.2
1GOA,HIS,A,114,5,6.53,N[C@H](C(O)=O)CC1=CNC=N1,H2O,O=C([C@@H](NC(CN)=O)CC1=CNC=[NH+]1)NCC(O)=O,0.311248158,909,5
1GOA,GLU,A,119,4.1,3.94,N[C@H](C(O)=O)CCC(O)=O,H2O,O=C(NCC(O)=O)[C@H](CCC(O)=O)NC(CN)=O,0.296267722,961,4.1
1GOA,HIS,A,124,7.1,7.23,N[C@H](C(O)=O)CC1=CNC=N1,H2O,O=C([C@@H](NC(CN)=O)CC1=CNC=[NH+]1)NCC(O)=O,0.311248158,1002,7.1
1GOA,HIS,A,127,7.9,6.91,N[C@H](C(O)=O)CC1=CNC=N1,H2O,O=C([C@@H](NC(CN)=O)CC1=CNC=[NH+]1)NCC(O)=O,0.311248158,1021,7.9
1GOA,GLU,A,129,3.6,3.78,N[C@H](C(O)=O)CCC(O)=O,H2O,O=C(NCC(O)=O)[C@H](CCC(O)=O)NC(CN)=O,0.296267722,1040,3.6
1GOA,GLU,A,131,4.3,4.38,N[C@H](C(O)=O)CCC(O)=O,H2O,O=C(NCC(O)=O)[C@H](CCC(O)=O)NC(CN)=O,0.296267722,1057,4.3
1GOA,ASP,A,134,4.3,3.36,OC(C[C@H](N)C(O)=O)=O,H2O,OC(C[C@@H](C(NCC(O)=O)=O)NC(CN)=O)=O,0.296269336,1082,4.3
1GOA,GLU,A,135,4.3,4.47,N[C@H](C(O)=O)CCC(O)=O,H2O,O=C(NCC(O)=O)[C@H](CCC(O)=O)NC(CN)=O,0.296267722,1091,4.3
1GOA,GLU,A,147,4.2,4.55,N[C@H](C(O)=O)CCC(O)=O,H2O,O=C(NCC(O)=O)[C@H](CCC(O)=O)NC(CN)=O,0.296267722,1177,4.2
1GOA,ASP,A,148,2,2.48,OC(C[C@H](N)C(O)=O)=O,H2O,OC(C[C@@H](C(NCC(O)=O)=O)NC(CN)=O)=O,0.296269336,1185,2
1GOA,GLU,A,154,4.4,4.36,N[C@H](C(O)=O)CCC(O)=O,H2O,O=C(NCC(O)=O)[C@H](CCC(O)=O)NC(CN)=O,0.296267722,1233,4.4
1H4G,ASP,B,5,3.84,3.82,OC(C[C@H](N)C(O)=O)=O,H2O,OC(C[C@@H](C(NCC(O)=O)=O)NC(CN)=O)=O,0.296269336,1665,3.84
1H4G,HIS,B,11,6.4,6.32,N[C@H](C(O)=O)CC1=CNC=N1,H2O,O=C([C@@H](NC(CN)=O)CC1=CNC=[NH+]1)NCC(O)=O,0.311248158,1706,6.4
1H4G,ASP,B,12,3.94,3.22,OC(C[C@H](N)C(O)=O)=O,H2O,OC(C[C@@H](C(NCC(O)=O)=O)NC(CN)=O)=O,0.296269336,1717,3.94
1H4G,ASP,B,15,3.35,3.08,OC(C[C@H](N)C(O)=O)=O,H2O,OC(C[C@@H](C(NCC(O)=O)=O)NC(CN)=O)=O,0.296269336,1741,3.35
1H4G,GLU,B,17,4.31,3.87,N[C@H](C(O)=O)CCC(O)=O,H2O,O=C(NCC(O)=O)[C@H](CCC(O)=O)NC(CN)=O,0.296267722,1762,4.31
1H4G,ASP,B,21,3.46,3.19,OC(C[C@H](N)C(O)=O)=O,H2O,OC(C[C@@H](C(NCC(O)=O)=O)NC(CN)=O)=O,0.296269336,1804,3.46
1H4G,HIS,B,32,6.7,6.47,N[C@H](C(O)=O)CC1=CNC=N1,H2O,O=C([C@@H](NC(CN)=O)CC1=CNC=[NH+]1)NCC(O)=O,0.311248158,1874,6.7
1H4G,GLU,B,56,3.94,3.75,N[C@H](C(O)=O)CCC(O)=O,H2O,O=C(NCC(O)=O)[C@H](CCC(O)=O)NC(CN)=O,0.296267722,2073,3.94
1H4G,HIS,B,60,4,6.58,N[C@H](C(O)=O)CC1=CNC=N1,H2O,O=C([C@@H](NC(CN)=O)CC1=CNC=[NH+]1)NCC(O)=O,0.311248158,2103,4
1H4G,ASP,B,90,3.88,3.66,OC(C[C@H](N)C(O)=O)=O,H2O,OC(C[C@@H](C(NCC(O)=O)=O)NC(CN)=O)=O,0.296269336,2339,3.88
1H4G,ASP,B,99,2.7,2.29,OC(C[C@H](N)C(O)=O)=O,H2O,OC(C[C@@H](C(NCC(O)=O)=O)NC(CN)=O)=O,0.296269336,2417,2.7
1H4G,ASP,B,118,2.7,2.5,OC(C[C@H](N)C(O)=O)=O,H2O,OC(C[C@@H](C(NCC(O)=O)=O)NC(CN)=O)=O,0.296269336,2561,2.7
1H4G,ASP,B,123,2.7,2.45,OC(C[C@H](N)C(O)=O)=O,H2O,OC(C[C@@H](C(NCC(O)=O)=O)NC(CN)=O)=O,0.296269336,2596,2.7
1H4G,GLU,B,126,4.51,3.98,N[C@H](C(O)=O)CCC(O)=O,H2O,O=C(NCC(O)=O)[C@H](CCC(O)=O)NC(CN)=O,0.296267722,2625,4.51
1H4G,HIS,B,162,2.7,6.22,N[C@H](C(O)=O)CC1=CNC=N1,H2O,O=C([C@@H](NC(CN)=O)CC1=CNC=[NH+]1)NCC(O)=O,0.311248158,2911,2.7
1H4G,GLU,B,167,3.58,3.49,N[C@H](C(O)=O)CCC(O)=O,H2O,O=C(NCC(O)=O)[C@H](CCC(O)=O)NC(CN)=O,0.296267722,2964,3.58
1H4G,GLU,B,178,4.1,2.47,N[C@H](C(O)=O)CCC(O)=O,H2O,O=C(NCC(O)=O)[C@H](CCC(O)=O)NC(CN)=O,0.296267722,3050,4.1
1H4G,GLU,B,184,6.5,4.27,N[C@H](C(O)=O)CCC(O)=O,H2O,O=C(NCC(O)=O)[C@H](CCC(O)=O)NC(CN)=O,0.296267722,3093,6.5
1I0V,ASP,A,3,3.54,3.57,OC(C[C@H](N)C(O)=O)=O,H2O,OC(C[C@@H](C(NCC(O)=O)=O)NC(CN)=O)=O,0.296269336,18,3.54
1I0V,ASP,A,15,3.52,3.79,OC(C[C@H](N)C(O)=O)=O,H2O,OC(C[C@@H](C(NCC(O)=O)=O)NC(CN)=O)=O,0.296269336,105,3.52
1I0V,HIS,A,27,7,7.71,N[C@H](C(O)=O)CC1=CNC=N1,H2O,O=C([C@@H](NC(CN)=O)CC1=CNC=[NH+]1)NCC(O)=O,0.311248158,186,7
1I0V,GLU,A,28,5.61,4.77,N[C@H](C(O)=O)CCC(O)=O,H2O,O=C(NCC(O)=O)[C@H](CCC(O)=O)NC(CN)=O,0.296267722,198,5.61
1I0V,ASP,A,29,4.26,4.02,OC(C[C@H](N)C(O)=O)=O,H2O,OC(C[C@@H](C(NCC(O)=O)=O)NC(CN)=O)=O,0.296269336,206,4.26
1I0V,GLU,A,31,5.36,4.78,N[C@H](C(O)=O)CCC(O)=O,H2O,O=C(NCC(O)=O)[C@H](CCC(O)=O)NC(CN)=O,0.296267722,219,5.36
1I0V,HIS,A,40,7.7,6.83,N[C@H](C(O)=O)CC1=CNC=N1,H2O,O=C([C@@H](NC(CN)=O)CC1=CNC=[NH+]1)NCC(O)=O,0.311248158,283,7.7
1I0V,GLU,A,46,3.62,3.98,N[C@H](C(O)=O)CCC(O)=O,H2O,O=C(NCC(O)=O)[C@H](CCC(O)=O)NC(CN)=O,0.296267722,342,3.62
1I0V,GLU,A,58,3.96,3.3,N[C@H](C(O)=O)CCC(O)=O,H2O,O=C(NCC(O)=O)[C@H](CCC(O)=O)NC(CN)=O,0.296267722,439,3.96
1I0V,ASP,A,66,3.9,3.95,OC(C[C@H](N)C(O)=O)=O,H2O,OC(C[C@@H](C(NCC(O)=O)=O)NC(CN)=O)=O,0.296269336,500,3.9
1I0V,ASP,A,76,0.5,3.27,OC(C[C@H](N)C(O)=O)=O,H2O,OC(C[C@@H](C(NCC(O)=O)=O)NC(CN)=O)=O,0.296269336,563,0.5
1I0V,GLU,A,82,3.27,3.84,N[C@H](C(O)=O)CCC(O)=O,H2O,O=C(NCC(O)=O)[C@H](CCC(O)=O)NC(CN)=O,0.296267722,616,3.27
1I0V,HIS,A,92,7.3,6.59,N[C@H](C(O)=O)CC1=CNC=N1,H2O,O=C([C@@H](NC(CN)=O)CC1=CNC=[NH+]1)NCC(O)=O,0.311248158,687,7.3
1I0V,GLU,A,102,5.3,4.68,N[C@H](C(O)=O)CCC(O)=O,H2O,O=C(NCC(O)=O)[C@H](CCC(O)=O)NC(CN)=O,0.296267722,756,5.3
1IG5,LYS,A,1,10.6,11.34,N[C@H](C(O)=O)CCCCN,H2O,O=C([C@@H](NC(CN)=O)CCCC[NH3+])NCC(O)=O,0.344006605,8,10.6
1IG5,GLU,A,4,3.8,4.16,N[C@H](C(O)=O)CCC(O)=O,H2O,O=C(NCC(O)=O)[C@H](CCC(O)=O)NC(CN)=O,0.296267722,30,3.8
1IG5,GLU,A,5,3.4,4.17,N[C@H](C(O)=O)CCC(O)=O,H2O,O=C(NCC(O)=O)[C@H](CCC(O)=O)NC(CN)=O,0.296267722,39,3.4
1IG5,LYS,A,7,11.39,11.39,N[C@H](C(O)=O)CCCCN,H2O,O=C([C@@H](NC(CN)=O)CCCC[NH3+])NCC(O)=O,0.344006605,56,11.39
1IG5,GLU,A,11,4.7,4.49,N[C@H](C(O)=O)CCC(O)=O,H2O,O=C(NCC(O)=O)[C@H](CCC(O)=O)NC(CN)=O,0.296267722,88,4.7
1IG5,LYS,A,12,11.06,11.45,N[C@H](C(O)=O)CCCCN,H2O,O=C([C@@H](NC(CN)=O)CCCC[NH3+])NCC(O)=O,0.344006605,97,11.06
1IG5,LYS,A,16,10.7,11.28,N[C@H](C(O)=O)CCCCN,H2O,O=C([C@@H](NC(CN)=O)CCCC[NH3+])NCC(O)=O,0.344006605,128,10.7
1IG5,GLU,A,17,3.62,4.82,N[C@H](C(O)=O)CCC(O)=O,H2O,O=C(NCC(O)=O)[C@H](CCC(O)=O)NC(CN)=O,0.296267722,137,3.62
1IG5,LYS,A,25,11.69,11.96,N[C@H](C(O)=O)CCCCN,H2O,O=C([C@@H](NC(CN)=O)CCCC[NH3+])NCC(O)=O,0.344006605,196,11.69
1IG5,GLU,A,26,4.1,4.41,N[C@H](C(O)=O)CCC(O)=O,H2O,O=C(NCC(O)=O)[C@H](CCC(O)=O)NC(CN)=O,0.296267722,205,4.1
1IG5,LYS,A,29,11.37,11.1,N[C@H](C(O)=O)CCCCN,H2O,O=C([C@@H](NC(CN)=O)CCCC[NH3+])NCC(O)=O,0.344006605,231,11.37
1IG5,LYS,A,41,10.93,10.83,N[C@H](C(O)=O)CCCCN,H2O,O=C([C@@H](NC(CN)=O)CCCC[NH3+])NCC(O)=O,0.344006605,329,10.93
1IG5,ASP,A,47,3,3.03,OC(C[C@H](N)C(O)=O)=O,H2O,OC(C[C@@H](C(NCC(O)=O)=O)NC(CN)=O)=O,0.296269336,369,3
1IG5,GLU,A,48,4.6,4.51,N[C@H](C(O)=O)CCC(O)=O,H2O,O=C(NCC(O)=O)[C@H](CCC(O)=O)NC(CN)=O,0.296267722,378,4.6
1IG5,LYS,A,55,12.12,11.7,N[C@H](C(O)=O)CCCCN,H2O,O=C([C@@H](NC(CN)=O)CCCC[NH3+])NCC(O)=O,0.344006605,436,12.12
1IG5,GLU,A,64,3.8,4.09,N[C@H](C(O)=O)CCC(O)=O,H2O,O=C(NCC(O)=O)[C@H](CCC(O)=O)NC(CN)=O,0.296267722,502,3.8
1IG5,LYS,A,71,10.73,10.71,N[C@H](C(O)=O)CCCCN,H2O,O=C([C@@H](NC(CN)=O)CCCC[NH3+])NCC(O)=O,0.344006605,562,10.73
1IG5,LYS,A,72,11.33,11,N[C@H](C(O)=O)CCCCN,H2O,O=C([C@@H](NC(CN)=O)CCCC[NH3+])NCC(O)=O,0.344006605,571,11.33
1IGD,GLU,A,20,4.3,4.18,N[C@H](C(O)=O)CCC(O)=O,H2O,O=C(NCC(O)=O)[C@H](CCC(O)=O)NC(CN)=O,0.296267722,149,4.3
1IGD,ASP,A,27,2.9,3.07,OC(C[C@H](N)C(O)=O)=O,H2O,OC(C[C@@H](C(NCC(O)=O)=O)NC(CN)=O)=O,0.296269336,199,2.9
1IGD,GLU,A,29,4.2,4.28,N[C@H](C(O)=O)CCC(O)=O,H2O,O=C(NCC(O)=O)[C@H](CCC(O)=O)NC(CN)=O,0.296267722,213,4.2
1IGD,GLU,A,32,4.6,4.23,N[C@H](C(O)=O)CCC(O)=O,H2O,O=C(NCC(O)=O)[C@H](CCC(O)=O)NC(CN)=O,0.296267722,234,4.6
1IGD,ASP,A,41,3.9,3.87,OC(C[C@H](N)C(O)=O)=O,H2O,OC(C[C@@H](C(NCC(O)=O)=O)NC(CN)=O)=O,0.296269336,310,3.9
1IGD,ASP,A,45,4.4,4.01,OC(C[C@H](N)C(O)=O)=O,H2O,OC(C[C@@H](C(NCC(O)=O)=O)NC(CN)=O)=O,0.296269336,337,4.4
1IGD,ASP,A,51,3.6,3.54,OC(C[C@H](N)C(O)=O)=O,H2O,OC(C[C@@H](C(NCC(O)=O)=O)NC(CN)=O)=O,0.296269336,389,3.6
1IGD,ASP,A,52,3.4,3.24,OC(C[C@H](N)C(O)=O)=O,H2O,OC(C[C@@H](C(NCC(O)=O)=O)NC(CN)=O)=O,0.296269336,397,3.4
1IGD,GLU,A,61,4.2,3.91,N[C@H](C(O)=O)CCC(O)=O,H2O,O=C(NCC(O)=O)[C@H](CCC(O)=O)NC(CN)=O,0.296267722,466,4.2
1IGV,LYS,A,1,10.6,11.45,N[C@H](C(O)=O)CCCCN,H2O,O=C([C@@H](NC(CN)=O)CCCC[NH3+])NCC(O)=O,0.344006605,8,10.6
1IGV,GLU,A,4,3.8,4.07,N[C@H](C(O)=O)CCC(O)=O,H2O,O=C(NCC(O)=O)[C@H](CCC(O)=O)NC(CN)=O,0.296267722,30,3.8
1IGV,GLU,A,5,3.4,4.08,N[C@H](C(O)=O)CCC(O)=O,H2O,O=C(NCC(O)=O)[C@H](CCC(O)=O)NC(CN)=O,0.296267722,39,3.4
1IGV,LYS,A,7,11.39,11.46,N[C@H](C(O)=O)CCCCN,H2O,O=C([C@@H](NC(CN)=O)CCCC[NH3+])NCC(O)=O,0.344006605,56,11.39
1IGV,GLU,A,11,4.7,4.46,N[C@H](C(O)=O)CCC(O)=O,H2O,O=C(NCC(O)=O)[C@H](CCC(O)=O)NC(CN)=O,0.296267722,88,4.7
1IGV,LYS,A,12,11.06,11.25,N[C@H](C(O)=O)CCCCN,H2O,O=C([C@@H](NC(CN)=O)CCCC[NH3+])NCC(O)=O,0.344006605,97,11.06
1IGV,LYS,A,16,10.7,11.27,N[C@H](C(O)=O)CCCCN,H2O,O=C([C@@H](NC(CN)=O)CCCC[NH3+])NCC(O)=O,0.344006605,128,10.7
1IGV,GLU,A,17,3.62,4.83,N[C@H](C(O)=O)CCC(O)=O,H2O,O=C(NCC(O)=O)[C@H](CCC(O)=O)NC(CN)=O,0.296267722,137,3.62
1IGV,LYS,A,25,11.69,11.93,N[C@H](C(O)=O)CCCCN,H2O,O=C([C@@H](NC(CN)=O)CCCC[NH3+])NCC(O)=O,0.344006605,196,11.69
1IGV,GLU,A,26,4.1,4.41,N[C@H](C(O)=O)CCC(O)=O,H2O,O=C(NCC(O)=O)[C@H](CCC(O)=O)NC(CN)=O,0.296267722,205,4.1
1IGV,LYS,A,29,11.37,11.12,N[C@H](C(O)=O)CCCCN,H2O,O=C([C@@H](NC(CN)=O)CCCC[NH3+])NCC(O)=O,0.344006605,231,11.37
1IGV,LYS,A,41,10.93,10.83,N[C@H](C(O)=O)CCCCN,H2O,O=C([C@@H](NC(CN)=O)CCCC[NH3+])NCC(O)=O,0.344006605,329,10.93
1IGV,ASP,A,47,3,3.13,OC(C[C@H](N)C(O)=O)=O,H2O,OC(C[C@@H](C(NCC(O)=O)=O)NC(CN)=O)=O,0.296269336,369,3
1IGV,GLU,A,48,4.6,4.53,N[C@H](C(O)=O)CCC(O)=O,H2O,O=C(NCC(O)=O)[C@H](CCC(O)=O)NC(CN)=O,0.296267722,378,4.6
1IGV,LYS,A,55,12.12,11.72,N[C@H](C(O)=O)CCCCN,H2O,O=C([C@@H](NC(CN)=O)CCCC[NH3+])NCC(O)=O,0.344006605,436,12.12
1IGV,GLU,A,64,3.8,4.08,N[C@H](C(O)=O)CCC(O)=O,H2O,O=C(NCC(O)=O)[C@H](CCC(O)=O)NC(CN)=O,0.296267722,502,3.8
1IGV,LYS,A,71,10.73,10.74,N[C@H](C(O)=O)CCCCN,H2O,O=C([C@@H](NC(CN)=O)CCCC[NH3+])NCC(O)=O,0.344006605,562,10.73
1IGV,LYS,A,72,11.33,11,N[C@H](C(O)=O)CCCCN,H2O,O=C([C@@H](NC(CN)=O)CCCC[NH3+])NCC(O)=O,0.344006605,571,11.33
1JV8,ASP,A,3,3.55,3.74,OC(C[C@H](N)C(O)=O)=O,H2O,OC(C[C@@H](C(NCC(O)=O)=O)NC(CN)=O)=O,0.296269336,25,3.55
1JV8,GLU,A,7,3.85,4.09,N[C@H](C(O)=O)CCC(O)=O,H2O,O=C(NCC(O)=O)[C@H](CCC(O)=O)NC(CN)=O,0.296267722,59,3.85
1JV8,LYS,A,15,10.43,10.62,N[C@H](C(O)=O)CCCCN,H2O,O=C([C@@H](NC(CN)=O)CCCC[NH3+])NCC(O)=O,0.344006605,118,10.43
1JV8,LYS,A,26,10.44,10.77,N[C@H](C(O)=O)CCCCN,H2O,O=C([C@@H](NC(CN)=O)CCCC[NH3+])NCC(O)=O,0.344006605,218,10.44
1JV8,LYS,A,41,10.75,10.83,N[C@H](C(O)=O)CCCCN,H2O,O=C([C@@H](NC(CN)=O)CCCC[NH3+])NCC(O)=O,0.344006605,327,10.75
1JV8,LYS,A,46,10.35,10.33,N[C@H](C(O)=O)CCCCN,H2O,O=C([C@@H](NC(CN)=O)CCCC[NH3+])NCC(O)=O,0.344006605,374,10.35
1JV8,GLU,A,49,3.91,4.28,N[C@H](C(O)=O)CCC(O)=O,H2O,O=C(NCC(O)=O)[C@H](CCC(O)=O)NC(CN)=O,0.296267722,394,3.91
1JV8,ASP,A,50,3.2,3.52,OC(C[C@H](N)C(O)=O)=O,H2O,OC(C[C@@H](C(NCC(O)=O)=O)NC(CN)=O)=O,0.296269336,402,3.2
1KF3,GLU,A,2,2.8,3.03,N[C@H](C(O)=O)CCC(O)=O,H2O,O=C(NCC(O)=O)[C@H](CCC(O)=O)NC(CN)=O,0.296267722,17,2.8
1KF3,GLU,A,9,4,4.26,N[C@H](C(O)=O)CCC(O)=O,H2O,O=C(NCC(O)=O)[C@H](CCC(O)=O)NC(CN)=O,0.296267722,68,4
1KF3,HIS,A,12,5.8,5.65,N[C@H](C(O)=O)CC1=CNC=N1,H2O,O=C([C@@H](NC(CN)=O)CC1=CNC=[NH+]1)NCC(O)=O,0.311248158,95,5.8
1KF3,ASP,A,38,3.5,3.03,OC(C[C@H](N)C(O)=O)=O,H2O,OC(C[C@@H](C(NCC(O)=O)=O)NC(CN)=O)=O,0.296269336,292,3.5
1KF3,GLU,A,49,4.7,4.48,N[C@H](C(O)=O)CCC(O)=O,H2O,O=C(NCC(O)=O)[C@H](CCC(O)=O)NC(CN)=O,0.296267722,384,4.7
1KF3,ASP,A,53,3.9,3.81,OC(C[C@H](N)C(O)=O)=O,H2O,OC(C[C@@H](C(NCC(O)=O)=O)NC(CN)=O)=O,0.296269336,411,3.9
1KF3,ASP,A,83,3.5,2.96,OC(C[C@H](N)C(O)=O)=O,H2O,OC(C[C@@H](C(NCC(O)=O)=O)NC(CN)=O)=O,0.296269336,635,3.5
1KF3,GLU,A,86,4.1,4.32,N[C@H](C(O)=O)CCC(O)=O,H2O,O=C(NCC(O)=O)[C@H](CCC(O)=O)NC(CN)=O,0.296267722,661,4.1
1KF3,HIS,A,105,6.6,6.3,N[C@H](C(O)=O)CC1=CNC=N1,H2O,O=C([C@@H](NC(CN)=O)CC1=CNC=[NH+]1)NCC(O)=O,0.311248158,804,6.6
1KF3,GLU,A,111,3.5,4.26,N[C@H](C(O)=O)CCC(O)=O,H2O,O=C(NCC(O)=O)[C@H](CCC(O)=O)NC(CN)=O,0.296267722,850,3.5
1KF3,HIS,A,119,6.1,6.7,N[C@H](C(O)=O)CC1=CNC=N1,H2O,O=C([C@@H](NC(CN)=O)CC1=CNC=[NH+]1)NCC(O)=O,0.311248158,909,6.1
1KF3,ASP,A,121,3.1,2.79,OC(C[C@H](N)C(O)=O)=O,H2O,OC(C[C@@H](C(NCC(O)=O)=O)NC(CN)=O)=O,0.296269336,931,3.1
1KXI,GLU,A,17,4,4.48,N[C@H](C(O)=O)CCC(O)=O,H2O,O=C(NCC(O)=O)[C@H](CCC(O)=O)NC(CN)=O,0.296267722,140,4
1KXI,ASP,A,42,3.2,3.18,OC(C[C@H](N)C(O)=O)=O,H2O,OC(C[C@@H](C(NCC(O)=O)=O)NC(CN)=O)=O,0.296269336,336,3.2
1KXI,ASP,A,59,2.3,3.21,OC(C[C@H](N)C(O)=O)=O,H2O,OC(C[C@@H](C(NCC(O)=O)=O)NC(CN)=O)=O,0.296269336,462,2.3