PDB_ID,Residue,Chain ID,Residue ID,Expt. pKa,Cal. pKa,SMILES_Residue,solvent,SMILES,H_Gasteiger_Charge,DH_Index,pKa
1LNI,ASP,A,1,3.44,4.05,OC(C[C@H](N)C(O)=O)=O,H2O,OC(C[C@@H](C(NCC(O)=O)=O)NC(CN)=O)=O,0.296269336,7,3.44
1LNI,GLU,A,14,5.05,4.1,N[C@H](C(O)=O)CCC(O)=O,H2O,O=C(NCC(O)=O)[C@H](CCC(O)=O)NC(CN)=O,0.296267722,94,5.05
1LNI,ASP,A,17,3.72,3.79,OC(C[C@H](N)C(O)=O)=O,H2O,OC(C[C@@H](C(NCC(O)=O)=O)NC(CN)=O)=O,0.296269336,114,3.72
1LNI,ASP,A,25,4.87,4.21,OC(C[C@H](N)C(O)=O)=O,H2O,OC(C[C@@H](C(NCC(O)=O)=O)NC(CN)=O)=O,0.296269336,172,4.87
1LNI,ASP,A,33,2.39,2.98,OC(C[C@H](N)C(O)=O)=O,H2O,OC(C[C@@H](C(NCC(O)=O)=O)NC(CN)=O)=O,0.296269336,236,2.39
1LNI,GLU,A,41,4.14,4.21,N[C@H](C(O)=O)CCC(O)=O,H2O,O=C(NCC(O)=O)[C@H](CCC(O)=O)NC(CN)=O,0.296267722,302,4.14
1LNI,HIS,A,53,8.27,7.01,N[C@H](C(O)=O)CC1=CNC=N1,H2O,O=C([C@@H](NC(CN)=O)CC1=CNC=[NH+]1)NCC(O)=O,0.311248158,399,8.27
1LNI,GLU,A,74,3.47,4.69,N[C@H](C(O)=O)CCC(O)=O,H2O,O=C(NCC(O)=O)[C@H](CCC(O)=O)NC(CN)=O,0.296267722,566,3.47
1LNI,GLU,A,78,3.13,4.45,N[C@H](C(O)=O)CCC(O)=O,H2O,O=C(NCC(O)=O)[C@H](CCC(O)=O)NC(CN)=O,0.296267722,596,3.13
1LNI,ASP,A,79,7.37,4.07,OC(C[C@H](N)C(O)=O)=O,H2O,OC(C[C@@H](C(NCC(O)=O)=O)NC(CN)=O)=O,0.296269336,604,7.37
1LNI,ASP,A,84,3.01,3.65,OC(C[C@H](N)C(O)=O)=O,H2O,OC(C[C@@H](C(NCC(O)=O)=O)NC(CN)=O)=O,0.296269336,647,3.01
1LNI,HIS,A,85,6.35,6.15,N[C@H](C(O)=O)CC1=CNC=N1,H2O,O=C([C@@H](NC(CN)=O)CC1=CNC=[NH+]1)NCC(O)=O,0.311248158,654,6.35
1LNI,ASP,A,93,3.09,3.99,OC(C[C@H](N)C(O)=O)=O,H2O,OC(C[C@@H](C(NCC(O)=O)=O)NC(CN)=O)=O,0.296269336,722,3.09
1LSE,LYS,A,1,10.8,11.24,N[C@H](C(O)=O)CCCCN,H2O,O=C([C@@H](NC(CN)=O)CCCC[NH3+])NCC(O)=O,0.344006605,8,10.8
1LSE,GLU,A,7,2.85,3.63,N[C@H](C(O)=O)CCC(O)=O,H2O,O=C(NCC(O)=O)[C@H](CCC(O)=O)NC(CN)=O,0.296267722,56,2.85
1LSE,LYS,A,13,10.5,10.54,N[C@H](C(O)=O)CCCCN,H2O,O=C([C@@H](NC(CN)=O)CCCC[NH3+])NCC(O)=O,0.344006605,96,10.5
1LSE,ASP,A,18,2.66,3,OC(C[C@H](N)C(O)=O)=O,H2O,OC(C[C@@H](C(NCC(O)=O)=O)NC(CN)=O)=O,0.296269336,137,2.66
1LSE,LYS,A,33,10.4,10.44,N[C@H](C(O)=O)CCCCN,H2O,O=C([C@@H](NC(CN)=O)CCCC[NH3+])NCC(O)=O,0.344006605,256,10.4
1LSE,GLU,A,35,6.2,4.28,N[C@H](C(O)=O)CCC(O)=O,H2O,O=C(NCC(O)=O)[C@H](CCC(O)=O)NC(CN)=O,0.296267722,276,6.2
1LSE,ASP,A,48,1.6,3.7,OC(C[C@H](N)C(O)=O)=O,H2O,OC(C[C@@H](C(NCC(O)=O)=O)NC(CN)=O)=O,0.296269336,379,1.6
1LSE,ASP,A,52,3.68,3.44,OC(C[C@H](N)C(O)=O)=O,H2O,OC(C[C@@H](C(NCC(O)=O)=O)NC(CN)=O)=O,0.296269336,404,3.68
1LSE,ASP,A,66,0.9,2.67,OC(C[C@H](N)C(O)=O)=O,H2O,OC(C[C@@H](C(NCC(O)=O)=O)NC(CN)=O)=O,0.296269336,528,0.9
1LSE,ASP,A,87,2.07,2.71,OC(C[C@H](N)C(O)=O)=O,H2O,OC(C[C@@H](C(NCC(O)=O)=O)NC(CN)=O)=O,0.296269336,676,2.07
1LSE,LYS,A,96,10.8,11.02,N[C@H](C(O)=O)CCCCN,H2O,O=C([C@@H](NC(CN)=O)CCCC[NH3+])NCC(O)=O,0.344006605,737,10.8
1LSE,LYS,A,97,10.3,10.86,N[C@H](C(O)=O)CCCCN,H2O,O=C([C@@H](NC(CN)=O)CCCC[NH3+])NCC(O)=O,0.344006605,746,10.3
1LSE,ASP,A,101,4.08,3.76,OC(C[C@H](N)C(O)=O)=O,H2O,OC(C[C@@H](C(NCC(O)=O)=O)NC(CN)=O)=O,0.296269336,775,4.08
1LSE,LYS,A,116,10.2,10.28,N[C@H](C(O)=O)CCCCN,H2O,O=C([C@@H](NC(CN)=O)CCCC[NH3+])NCC(O)=O,0.344006605,897,10.2
1LSE,ASP,A,119,3.2,3.34,OC(C[C@H](N)C(O)=O)=O,H2O,OC(C[C@@H](C(NCC(O)=O)=O)NC(CN)=O)=O,0.296269336,916,3.2
1LYS,LYS,A,1,10.8,11.32,N[C@H](C(O)=O)CCCCN,H2O,O=C([C@@H](NC(CN)=O)CCCC[NH3+])NCC(O)=O,0.344006605,8,10.8
1LYS,GLU,A,7,2.85,3.71,N[C@H](C(O)=O)CCC(O)=O,H2O,O=C(NCC(O)=O)[C@H](CCC(O)=O)NC(CN)=O,0.296267722,56,2.85
1LYS,LYS,A,13,10.5,10.5,N[C@H](C(O)=O)CCCCN,H2O,O=C([C@@H](NC(CN)=O)CCCC[NH3+])NCC(O)=O,0.344006605,96,10.5
1LYS,ASP,A,18,2.66,3.16,OC(C[C@H](N)C(O)=O)=O,H2O,OC(C[C@@H](C(NCC(O)=O)=O)NC(CN)=O)=O,0.296269336,137,2.66
1LYS,LYS,A,33,10.4,10.67,N[C@H](C(O)=O)CCCCN,H2O,O=C([C@@H](NC(CN)=O)CCCC[NH3+])NCC(O)=O,0.344006605,256,10.4
1LYS,GLU,A,35,6.2,4.22,N[C@H](C(O)=O)CCC(O)=O,H2O,O=C(NCC(O)=O)[C@H](CCC(O)=O)NC(CN)=O,0.296267722,276,6.2
1LYS,ASP,A,48,1.6,3.52,OC(C[C@H](N)C(O)=O)=O,H2O,OC(C[C@@H](C(NCC(O)=O)=O)NC(CN)=O)=O,0.296269336,379,1.6
1LYS,ASP,A,52,3.68,3.66,OC(C[C@H](N)C(O)=O)=O,H2O,OC(C[C@@H](C(NCC(O)=O)=O)NC(CN)=O)=O,0.296269336,404,3.68
1LYS,ASP,A,66,0.9,2.69,OC(C[C@H](N)C(O)=O)=O,H2O,OC(C[C@@H](C(NCC(O)=O)=O)NC(CN)=O)=O,0.296269336,528,0.9
1LYS,ASP,A,87,2.07,3.24,OC(C[C@H](N)C(O)=O)=O,H2O,OC(C[C@@H](C(NCC(O)=O)=O)NC(CN)=O)=O,0.296269336,676,2.07
1LYS,LYS,A,96,10.8,10.97,N[C@H](C(O)=O)CCCCN,H2O,O=C([C@@H](NC(CN)=O)CCCC[NH3+])NCC(O)=O,0.344006605,737,10.8
1LYS,LYS,A,97,10.3,10.81,N[C@H](C(O)=O)CCCCN,H2O,O=C([C@@H](NC(CN)=O)CCCC[NH3+])NCC(O)=O,0.344006605,746,10.3
1LYS,ASP,A,101,4.08,3.81,OC(C[C@H](N)C(O)=O)=O,H2O,OC(C[C@@H](C(NCC(O)=O)=O)NC(CN)=O)=O,0.296269336,775,4.08
1LYS,LYS,A,116,10.2,10.33,N[C@H](C(O)=O)CCCCN,H2O,O=C([C@@H](NC(CN)=O)CCCC[NH3+])NCC(O)=O,0.344006605,897,10.2
1LYS,ASP,A,119,3.2,3.66,OC(C[C@H](N)C(O)=O)=O,H2O,OC(C[C@@H](C(NCC(O)=O)=O)NC(CN)=O)=O,0.296269336,916,3.2
1PGA,LYS,A,10,11,10.97,N[C@H](C(O)=O)CCCCN,H2O,O=C([C@@H](NC(CN)=O)CCCC[NH3+])NCC(O)=O,0.344006605,80,11
1PGA,LYS,A,13,11,11.37,N[C@H](C(O)=O)CCCCN,H2O,O=C([C@@H](NC(CN)=O)CCCC[NH3+])NCC(O)=O,0.344006605,104,11
1PGA,GLU,A,15,4.4,4.15,N[C@H](C(O)=O)CCC(O)=O,H2O,O=C(NCC(O)=O)[C@H](CCC(O)=O)NC(CN)=O,0.296267722,117,4.4
1PGA,GLU,A,19,3.7,4.66,N[C@H](C(O)=O)CCC(O)=O,H2O,O=C(NCC(O)=O)[C@H](CCC(O)=O)NC(CN)=O,0.296267722,147,3.7
1PGA,ASP,A,22,2.9,3.23,OC(C[C@H](N)C(O)=O)=O,H2O,OC(C[C@@H](C(NCC(O)=O)=O)NC(CN)=O)=O,0.296269336,167,2.9
1PGA,GLU,A,27,4.5,3.81,N[C@H](C(O)=O)CCC(O)=O,H2O,O=C(NCC(O)=O)[C@H](CCC(O)=O)NC(CN)=O,0.296267722,198,4.5
1PGA,LYS,A,28,10.9,11.51,N[C@H](C(O)=O)CCCCN,H2O,O=C([C@@H](NC(CN)=O)CCCC[NH3+])NCC(O)=O,0.344006605,207,10.9
1PGA,ASP,A,36,3.8,3.98,OC(C[C@H](N)C(O)=O)=O,H2O,OC(C[C@@H](C(NCC(O)=O)=O)NC(CN)=O)=O,0.296269336,276,3.8
1PGA,ASP,A,40,4,3.99,OC(C[C@H](N)C(O)=O)=O,H2O,OC(C[C@@H](C(NCC(O)=O)=O)NC(CN)=O)=O,0.296269336,303,4
1PGA,GLU,A,42,4.4,4.54,N[C@H](C(O)=O)CCC(O)=O,H2O,O=C(NCC(O)=O)[C@H](CCC(O)=O)NC(CN)=O,0.296267722,316,4.4
1PGA,ASP,A,46,3.6,3.68,OC(C[C@H](N)C(O)=O)=O,H2O,OC(C[C@@H](C(NCC(O)=O)=O)NC(CN)=O)=O,0.296269336,357,3.6
1PGA,ASP,A,47,3.4,3.02,OC(C[C@H](N)C(O)=O)=O,H2O,OC(C[C@@H](C(NCC(O)=O)=O)NC(CN)=O)=O,0.296269336,365,3.4
1PGA,GLU,A,56,4,3.82,N[C@H](C(O)=O)CCC(O)=O,H2O,O=C(NCC(O)=O)[C@H](CCC(O)=O)NC(CN)=O,0.296267722,434,4
1PGB,LYS,A,10,11,10.97,N[C@H](C(O)=O)CCCCN,H2O,O=C([C@@H](NC(CN)=O)CCCC[NH3+])NCC(O)=O,0.344006605,80,11
1PGB,LYS,A,13,11,11.34,N[C@H](C(O)=O)CCCCN,H2O,O=C([C@@H](NC(CN)=O)CCCC[NH3+])NCC(O)=O,0.344006605,104,11
1PGB,GLU,A,15,4.4,4.02,N[C@H](C(O)=O)CCC(O)=O,H2O,O=C(NCC(O)=O)[C@H](CCC(O)=O)NC(CN)=O,0.296267722,117,4.4
1PGB,GLU,A,19,3.7,4.64,N[C@H](C(O)=O)CCC(O)=O,H2O,O=C(NCC(O)=O)[C@H](CCC(O)=O)NC(CN)=O,0.296267722,147,3.7
1PGB,ASP,A,22,2.9,2.99,OC(C[C@H](N)C(O)=O)=O,H2O,OC(C[C@@H](C(NCC(O)=O)=O)NC(CN)=O)=O,0.296269336,167,2.9
1PGB,GLU,A,27,4.5,4.09,N[C@H](C(O)=O)CCC(O)=O,H2O,O=C(NCC(O)=O)[C@H](CCC(O)=O)NC(CN)=O,0.296267722,198,4.5
1PGB,LYS,A,28,10.9,10.98,N[C@H](C(O)=O)CCCCN,H2O,O=C([C@@H](NC(CN)=O)CCCC[NH3+])NCC(O)=O,0.344006605,207,10.9
1PGB,ASP,A,36,3.8,3.99,OC(C[C@H](N)C(O)=O)=O,H2O,OC(C[C@@H](C(NCC(O)=O)=O)NC(CN)=O)=O,0.296269336,276,3.8
1PGB,ASP,A,40,4,4.05,OC(C[C@H](N)C(O)=O)=O,H2O,OC(C[C@@H](C(NCC(O)=O)=O)NC(CN)=O)=O,0.296269336,303,4
1PGB,GLU,A,42,4.4,4.65,N[C@H](C(O)=O)CCC(O)=O,H2O,O=C(NCC(O)=O)[C@H](CCC(O)=O)NC(CN)=O,0.296267722,316,4.4
1PGB,ASP,A,46,3.6,3.56,OC(C[C@H](N)C(O)=O)=O,H2O,OC(C[C@@H](C(NCC(O)=O)=O)NC(CN)=O)=O,0.296269336,357,3.6
1PGB,ASP,A,47,3.4,3.46,OC(C[C@H](N)C(O)=O)=O,H2O,OC(C[C@@H](C(NCC(O)=O)=O)NC(CN)=O)=O,0.296269336,365,3.4
1PGB,GLU,A,56,4,3.92,N[C@H](C(O)=O)CCC(O)=O,H2O,O=C(NCC(O)=O)[C@H](CCC(O)=O)NC(CN)=O,0.296267722,434,4
1QH7,ASP,A,5,3.84,3.66,OC(C[C@H](N)C(O)=O)=O,H2O,OC(C[C@@H](C(NCC(O)=O)=O)NC(CN)=O)=O,0.296269336,37,3.84
1QH7,HIS,A,11,6.4,6.23,N[C@H](C(O)=O)CC1=CNC=N1,H2O,O=C([C@@H](NC(CN)=O)CC1=CNC=[NH+]1)NCC(O)=O,0.311248158,78,6.4
1QH7,ASP,A,12,3.94,3.26,OC(C[C@H](N)C(O)=O)=O,H2O,OC(C[C@@H](C(NCC(O)=O)=O)NC(CN)=O)=O,0.296269336,89,3.94
1QH7,ASP,A,15,3.35,3.09,OC(C[C@H](N)C(O)=O)=O,H2O,OC(C[C@@H](C(NCC(O)=O)=O)NC(CN)=O)=O,0.296269336,113,3.35
1QH7,GLU,A,17,4.31,3.91,N[C@H](C(O)=O)CCC(O)=O,H2O,O=C(NCC(O)=O)[C@H](CCC(O)=O)NC(CN)=O,0.296267722,134,4.31
1QH7,ASP,A,21,3.46,3.25,OC(C[C@H](N)C(O)=O)=O,H2O,OC(C[C@@H](C(NCC(O)=O)=O)NC(CN)=O)=O,0.296269336,176,3.46
1QH7,HIS,A,32,6.7,6.48,N[C@H](C(O)=O)CC1=CNC=N1,H2O,O=C([C@@H](NC(CN)=O)CC1=CNC=[NH+]1)NCC(O)=O,0.311248158,246,6.7
1QH7,GLU,A,56,3.94,3.85,N[C@H](C(O)=O)CCC(O)=O,H2O,O=C(NCC(O)=O)[C@H](CCC(O)=O)NC(CN)=O,0.296267722,445,3.94
1QH7,HIS,A,60,4,6.74,N[C@H](C(O)=O)CC1=CNC=N1,H2O,O=C([C@@H](NC(CN)=O)CC1=CNC=[NH+]1)NCC(O)=O,0.311248158,475,4
1QH7,ASP,A,90,3.88,3.76,OC(C[C@H](N)C(O)=O)=O,H2O,OC(C[C@@H](C(NCC(O)=O)=O)NC(CN)=O)=O,0.296269336,711,3.88
1QH7,ASP,A,99,2.7,2.42,OC(C[C@H](N)C(O)=O)=O,H2O,OC(C[C@@H](C(NCC(O)=O)=O)NC(CN)=O)=O,0.296269336,789,2.7
1QH7,ASP,A,118,2.7,2.44,OC(C[C@H](N)C(O)=O)=O,H2O,OC(C[C@@H](C(NCC(O)=O)=O)NC(CN)=O)=O,0.296269336,933,2.7
1QH7,ASP,A,123,2.7,2.49,OC(C[C@H](N)C(O)=O)=O,H2O,OC(C[C@@H](C(NCC(O)=O)=O)NC(CN)=O)=O,0.296269336,968,2.7
1QH7,GLU,A,126,4.51,3.64,N[C@H](C(O)=O)CCC(O)=O,H2O,O=C(NCC(O)=O)[C@H](CCC(O)=O)NC(CN)=O,0.296267722,997,4.51
1QH7,HIS,A,162,2.7,6.28,N[C@H](C(O)=O)CC1=CNC=N1,H2O,O=C([C@@H](NC(CN)=O)CC1=CNC=[NH+]1)NCC(O)=O,0.311248158,1283,2.7
1QH7,GLU,A,167,3.58,3.55,N[C@H](C(O)=O)CCC(O)=O,H2O,O=C(NCC(O)=O)[C@H](CCC(O)=O)NC(CN)=O,0.296267722,1336,3.58
1QH7,GLU,A,178,4.1,2.52,N[C@H](C(O)=O)CCC(O)=O,H2O,O=C(NCC(O)=O)[C@H](CCC(O)=O)NC(CN)=O,0.296267722,1422,4.1
1QH7,GLU,A,184,6.5,4.26,N[C@H](C(O)=O)CCC(O)=O,H2O,O=C(NCC(O)=O)[C@H](CCC(O)=O)NC(CN)=O,0.296267722,1465,6.5
1RDD,GLU,A,6,4.5,4.11,N[C@H](C(O)=O)CCC(O)=O,H2O,O=C(NCC(O)=O)[C@H](CCC(O)=O)NC(CN)=O,0.296267722,49,4.5
1RDD,ASP,A,10,6.1,3.98,OC(C[C@H](N)C(O)=O)=O,H2O,OC(C[C@@H](C(NCC(O)=O)=O)NC(CN)=O)=O,0.296269336,83,6.1
1RDD,GLU,A,32,3.6,3.17,N[C@H](C(O)=O)CCC(O)=O,H2O,O=C(NCC(O)=O)[C@H](CCC(O)=O)NC(CN)=O,0.296267722,240,3.6
1RDD,GLU,A,48,4.4,4.05,N[C@H](C(O)=O)CCC(O)=O,H2O,O=C(NCC(O)=O)[C@H](CCC(O)=O)NC(CN)=O,0.296267722,370,4.4
1RDD,GLU,A,57,3.2,3.67,N[C@H](C(O)=O)CCC(O)=O,H2O,O=C(NCC(O)=O)[C@H](CCC(O)=O)NC(CN)=O,0.296267722,433,3.2
1RDD,GLU,A,61,3.9,3.5,N[C@H](C(O)=O)CCC(O)=O,H2O,O=C(NCC(O)=O)[C@H](CCC(O)=O)NC(CN)=O,0.296267722,464,3.9
1RDD,HIS,A,62,7,6.49,N[C@H](C(O)=O)CC1=CNC=N1,H2O,O=C([C@@H](NC(CN)=O)CC1=CNC=[NH+]1)NCC(O)=O,0.311248158,471,7
1RDD,GLU,A,64,4.4,4.44,N[C@H](C(O)=O)CCC(O)=O,H2O,O=C(NCC(O)=O)[C@H](CCC(O)=O)NC(CN)=O,0.296267722,489,4.4
1RDD,ASP,A,70,2.6,3.82,OC(C[C@H](N)C(O)=O)=O,H2O,OC(C[C@@H](C(NCC(O)=O)=O)NC(CN)=O)=O,0.296269336,533,2.6
1RDD,HIS,A,83,5.5,6.3,N[C@H](C(O)=O)CC1=CNC=N1,H2O,O=C([C@@H](NC(CN)=O)CC1=CNC=[NH+]1)NCC(O)=O,0.311248158,644,5.5
1RDD,ASP,A,94,3.2,3.49,OC(C[C@H](N)C(O)=O)=O,H2O,OC(C[C@@H](C(NCC(O)=O)=O)NC(CN)=O)=O,0.296269336,745,3.2
1RDD,ASP,A,102,2,2.62,OC(C[C@H](N)C(O)=O)=O,H2O,OC(C[C@@H](C(NCC(O)=O)=O)NC(CN)=O)=O,0.296269336,809,2
1RDD,ASP,A,108,3.2,3.48,OC(C[C@H](N)C(O)=O)=O,H2O,OC(C[C@@H](C(NCC(O)=O)=O)NC(CN)=O)=O,0.296269336,867,3.2
1RDD,HIS,A,114,5,6.51,N[C@H](C(O)=O)CC1=CNC=N1,H2O,O=C([C@@H](NC(CN)=O)CC1=CNC=[NH+]1)NCC(O)=O,0.311248158,905,5
1RDD,GLU,A,119,4.1,4.03,N[C@H](C(O)=O)CCC(O)=O,H2O,O=C(NCC(O)=O)[C@H](CCC(O)=O)NC(CN)=O,0.296267722,957,4.1
1RDD,HIS,A,124,7.1,6.34,N[C@H](C(O)=O)CC1=CNC=N1,H2O,O=C([C@@H](NC(CN)=O)CC1=CNC=[NH+]1)NCC(O)=O,0.311248158,998,7.1
1RDD,HIS,A,127,7.9,7.22,N[C@H](C(O)=O)CC1=CNC=N1,H2O,O=C([C@@H](NC(CN)=O)CC1=CNC=[NH+]1)NCC(O)=O,0.311248158,1017,7.9
1RDD,GLU,A,129,3.6,3.31,N[C@H](C(O)=O)CCC(O)=O,H2O,O=C(NCC(O)=O)[C@H](CCC(O)=O)NC(CN)=O,0.296267722,1036,3.6
1RDD,GLU,A,131,4.3,4.66,N[C@H](C(O)=O)CCC(O)=O,H2O,O=C(NCC(O)=O)[C@H](CCC(O)=O)NC(CN)=O,0.296267722,1053,4.3
1RDD,ASP,A,134,4.3,3.78,OC(C[C@H](N)C(O)=O)=O,H2O,OC(C[C@@H](C(NCC(O)=O)=O)NC(CN)=O)=O,0.296269336,1078,4.3
1RDD,GLU,A,135,4.3,4.53,N[C@H](C(O)=O)CCC(O)=O,H2O,O=C(NCC(O)=O)[C@H](CCC(O)=O)NC(CN)=O,0.296267722,1087,4.3
1RDD,GLU,A,147,4.2,4.54,N[C@H](C(O)=O)CCC(O)=O,H2O,O=C(NCC(O)=O)[C@H](CCC(O)=O)NC(CN)=O,0.296267722,1173,4.2
1RDD,ASP,A,148,2,2.18,OC(C[C@H](N)C(O)=O)=O,H2O,OC(C[C@@H](C(NCC(O)=O)=O)NC(CN)=O)=O,0.296269336,1181,2
1RDD,GLU,A,154,4.4,4.44,N[C@H](C(O)=O)CCC(O)=O,H2O,O=C(NCC(O)=O)[C@H](CCC(O)=O)NC(CN)=O,0.296267722,1229,4.4
1RGG,ASP,A,1,3.44,4.05,OC(C[C@H](N)C(O)=O)=O,H2O,OC(C[C@@H](C(NCC(O)=O)=O)NC(CN)=O)=O,0.296269336,7,3.44
1RGG,GLU,A,14,5.05,4.09,N[C@H](C(O)=O)CCC(O)=O,H2O,O=C(NCC(O)=O)[C@H](CCC(O)=O)NC(CN)=O,0.296267722,94,5.05
1RGG,ASP,A,17,3.72,3.87,OC(C[C@H](N)C(O)=O)=O,H2O,OC(C[C@@H](C(NCC(O)=O)=O)NC(CN)=O)=O,0.296269336,114,3.72
1RGG,ASP,A,25,4.87,4.19,OC(C[C@H](N)C(O)=O)=O,H2O,OC(C[C@@H](C(NCC(O)=O)=O)NC(CN)=O)=O,0.296269336,172,4.87
1RGG,ASP,A,33,2.39,2.67,OC(C[C@H](N)C(O)=O)=O,H2O,OC(C[C@@H](C(NCC(O)=O)=O)NC(CN)=O)=O,0.296269336,236,2.39
1RGG,GLU,A,41,4.14,4.08,N[C@H](C(O)=O)CCC(O)=O,H2O,O=C(NCC(O)=O)[C@H](CCC(O)=O)NC(CN)=O,0.296267722,302,4.14
1RGG,HIS,A,53,8.27,7.18,N[C@H](C(O)=O)CC1=CNC=N1,H2O,O=C([C@@H](NC(CN)=O)CC1=CNC=[NH+]1)NCC(O)=O,0.311248158,399,8.27
1RGG,GLU,A,74,3.47,4.7,N[C@H](C(O)=O)CCC(O)=O,H2O,O=C(NCC(O)=O)[C@H](CCC(O)=O)NC(CN)=O,0.296267722,566,3.47
1RGG,GLU,A,78,3.13,4.58,N[C@H](C(O)=O)CCC(O)=O,H2O,O=C(NCC(O)=O)[C@H](CCC(O)=O)NC(CN)=O,0.296267722,596,3.13
1RGG,ASP,A,79,7.37,4.12,OC(C[C@H](N)C(O)=O)=O,H2O,OC(C[C@@H](C(NCC(O)=O)=O)NC(CN)=O)=O,0.296269336,604,7.37
1RGG,ASP,A,84,3.01,3.05,OC(C[C@H](N)C(O)=O)=O,H2O,OC(C[C@@H](C(NCC(O)=O)=O)NC(CN)=O)=O,0.296269336,647,3.01
1RGG,HIS,A,85,6.35,6.29,N[C@H](C(O)=O)CC1=CNC=N1,H2O,O=C([C@@H](NC(CN)=O)CC1=CNC=[NH+]1)NCC(O)=O,0.311248158,654,6.35
1RGG,ASP,A,93,3.09,4.01,OC(C[C@H](N)C(O)=O)=O,H2O,OC(C[C@@H](C(NCC(O)=O)=O)NC(CN)=O)=O,0.296269336,722,3.09
1RNZ,GLU,A,2,2.8,2.7,N[C@H](C(O)=O)CCC(O)=O,H2O,O=C(NCC(O)=O)[C@H](CCC(O)=O)NC(CN)=O,0.296267722,17,2.8
1RNZ,GLU,A,9,4,4.25,N[C@H](C(O)=O)CCC(O)=O,H2O,O=C(NCC(O)=O)[C@H](CCC(O)=O)NC(CN)=O,0.296267722,68,4
1RNZ,HIS,A,12,5.8,5.71,N[C@H](C(O)=O)CC1=CNC=N1,H2O,O=C([C@@H](NC(CN)=O)CC1=CNC=[NH+]1)NCC(O)=O,0.311248158,95,5.8
1RNZ,ASP,A,38,3.5,3.62,OC(C[C@H](N)C(O)=O)=O,H2O,OC(C[C@@H](C(NCC(O)=O)=O)NC(CN)=O)=O,0.296269336,292,3.5
1RNZ,GLU,A,49,4.7,4.45,N[C@H](C(O)=O)CCC(O)=O,H2O,O=C(NCC(O)=O)[C@H](CCC(O)=O)NC(CN)=O,0.296267722,384,4.7
1RNZ,ASP,A,53,3.9,3.8,OC(C[C@H](N)C(O)=O)=O,H2O,OC(C[C@@H](C(NCC(O)=O)=O)NC(CN)=O)=O,0.296269336,411,3.9
1RNZ,ASP,A,83,3.5,2.83,OC(C[C@H](N)C(O)=O)=O,H2O,OC(C[C@@H](C(NCC(O)=O)=O)NC(CN)=O)=O,0.296269336,635,3.5
1RNZ,GLU,A,86,4.1,4.28,N[C@H](C(O)=O)CCC(O)=O,H2O,O=C(NCC(O)=O)[C@H](CCC(O)=O)NC(CN)=O,0.296267722,661,4.1
1RNZ,HIS,A,105,6.6,6.37,N[C@H](C(O)=O)CC1=CNC=N1,H2O,O=C([C@@H](NC(CN)=O)CC1=CNC=[NH+]1)NCC(O)=O,0.311248158,804,6.6
1RNZ,GLU,A,111,3.5,4.34,N[C@H](C(O)=O)CCC(O)=O,H2O,O=C(NCC(O)=O)[C@H](CCC(O)=O)NC(CN)=O,0.296267722,850,3.5
1RNZ,HIS,A,119,6.1,6.58,N[C@H](C(O)=O)CC1=CNC=N1,H2O,O=C([C@@H](NC(CN)=O)CC1=CNC=[NH+]1)NCC(O)=O,0.311248158,909,6.1
1RNZ,ASP,A,121,3.1,2.73,OC(C[C@H](N)C(O)=O)=O,H2O,OC(C[C@@H](C(NCC(O)=O)=O)NC(CN)=O)=O,0.296269336,931,3.1
1WLA,HIS,A,36,7.8,6.63,N[C@H](C(O)=O)CC1=CNC=N1,H2O,O=C([C@@H](NC(CN)=O)CC1=CNC=[NH+]1)NCC(O)=O,0.311248158,276,7.8
1WLA,HIS,A,48,5.62,6.48,N[C@H](C(O)=O)CC1=CNC=N1,H2O,O=C([C@@H](NC(CN)=O)CC1=CNC=[NH+]1)NCC(O)=O,0.311248158,383,5.62
1WLA,HIS,A,81,6.94,6.66,N[C@H](C(O)=O)CC1=CNC=N1,H2O,O=C([C@@H](NC(CN)=O)CC1=CNC=[NH+]1)NCC(O)=O,0.311248158,629,6.94
1WLA,HIS,A,113,5.87,6.01,N[C@H](C(O)=O)CC1=CNC=N1,H2O,O=C([C@@H](NC(CN)=O)CC1=CNC=[NH+]1)NCC(O)=O,0.311248158,889,5.87
1WLA,HIS,A,116,6.79,6.29,N[C@H](C(O)=O)CC1=CNC=N1,H2O,O=C([C@@H](NC(CN)=O)CC1=CNC=[NH+]1)NCC(O)=O,0.311248158,914,6.79
1WLA,HIS,A,119,6.56,6.09,N[C@H](C(O)=O)CC1=CNC=N1,H2O,O=C([C@@H](NC(CN)=O)CC1=CNC=[NH+]1)NCC(O)=O,0.311248158,939,6.56
1XNB,ASP,A,4,3,2.8,OC(C[C@H](N)C(O)=O)=O,H2O,OC(C[C@@H](C(NCC(O)=O)=O)NC(CN)=O)=O,0.296269336,25,3
1XNB,ASP,A,11,2.5,3.27,OC(C[C@H](N)C(O)=O)=O,H2O,OC(C[C@@H](C(NCC(O)=O)=O)NC(CN)=O)=O,0.296269336,97,2.5
1XNB,GLU,A,78,4.6,4.19,N[C@H](C(O)=O)CCC(O)=O,H2O,O=C(NCC(O)=O)[C@H](CCC(O)=O)NC(CN)=O,0.296267722,597,4.6
1XNB,ASP,A,106,2.7,3.5,OC(C[C@H](N)C(O)=O)=O,H2O,OC(C[C@@H](C(NCC(O)=O)=O)NC(CN)=O)=O,0.296269336,819,2.7
1XNB,ASP,A,119,3.2,3.15,OC(C[C@H](N)C(O)=O)=O,H2O,OC(C[C@@H](C(NCC(O)=O)=O)NC(CN)=O)=O,0.296269336,925,3.2
1XNB,ASP,A,121,3.6,3.86,OC(C[C@H](N)C(O)=O)=O,H2O,OC(C[C@@H](C(NCC(O)=O)=O)NC(CN)=O)=O,0.296269336,937,3.6
1XNB,HIS,A,149,2.3,6.51,N[C@H](C(O)=O)CC1=CNC=N1,H2O,O=C([C@@H](NC(CN)=O)CC1=CNC=[NH+]1)NCC(O)=O,0.311248158,1166,2.3
1XNB,HIS,A,156,6.5,6.33,N[C@H](C(O)=O)CC1=CNC=N1,H2O,O=C([C@@H](NC(CN)=O)CC1=CNC=[NH+]1)NCC(O)=O,0.311248158,1225,6.5
1XNB,GLU,A,172,6.7,4.4,N[C@H](C(O)=O)CCC(O)=O,H2O,O=C(NCC(O)=O)[C@H](CCC(O)=O)NC(CN)=O,0.296267722,1350,6.7
1Z12,HIS,A,66,8.3,6.96,N[C@H](C(O)=O)CC1=CNC=N1,H2O,O=C([C@@H](NC(CN)=O)CC1=CNC=[NH+]1)NCC(O)=O,0.311248158,504,8.3
1Z12,HIS,A,72,9.2,6.73,N[C@H](C(O)=O)CC1=CNC=N1,H2O,O=C([C@@H](NC(CN)=O)CC1=CNC=[NH+]1)NCC(O)=O,0.311248158,546,9.2
2BUS,ASP,A,6,4,3.53,OC(C[C@H](N)C(O)=O)=O,H2O,OC(C[C@@H](C(NCC(O)=O)=O)NC(CN)=O)=O,0.296269336,40,4
2BUS,GLU,A,9,4.3,4.41,N[C@H](C(O)=O)CCC(O)=O,H2O,O=C(NCC(O)=O)[C@H](CCC(O)=O)NC(CN)=O,0.296267722,60,4.3
2BUS,ASP,A,12,3.6,3.96,OC(C[C@H](N)C(O)=O)=O,H2O,OC(C[C@@H](C(NCC(O)=O)=O)NC(CN)=O)=O,0.296269336,88,3.6
2BUS,GLU,A,20,4.1,4.14,N[C@H](C(O)=O)CCC(O)=O,H2O,O=C(NCC(O)=O)[C@H](CCC(O)=O)NC(CN)=O,0.296267722,156,4.1
2CI2,GLU,I,23,3.2,4.04,N[C@H](C(O)=O)CCC(O)=O,H2O,O=C(NCC(O)=O)[C@H](CCC(O)=O)NC(CN)=O,0.296267722,40,3.2
2CI2,GLU,I,26,3.3,3.72,N[C@H](C(O)=O)CCC(O)=O,H2O,O=C(NCC(O)=O)[C@H](CCC(O)=O)NC(CN)=O,0.296267722,70,3.3
2CI2,GLU,I,33,4.2,4.35,N[C@H](C(O)=O)CCC(O)=O,H2O,O=C(NCC(O)=O)[C@H](CCC(O)=O)NC(CN)=O,0.296267722,120,4.2
2CI2,GLU,I,34,3.8,4.25,N[C@H](C(O)=O)CCC(O)=O,H2O,O=C(NCC(O)=O)[C@H](CCC(O)=O)NC(CN)=O,0.296267722,129,3.8
2CI2,ASP,I,42,3.3,3.46,OC(C[C@H](N)C(O)=O)=O,H2O,OC(C[C@@H](C(NCC(O)=O)=O)NC(CN)=O)=O,0.296269336,192,3.3
2CI2,GLU,I,45,3.9,3.98,N[C@H](C(O)=O)CCC(O)=O,H2O,O=C(NCC(O)=O)[C@H](CCC(O)=O)NC(CN)=O,0.296267722,217,3.9
2CI2,GLU,I,60,3.5,3.88,N[C@H](C(O)=O)CCC(O)=O,H2O,O=C(NCC(O)=O)[C@H](CCC(O)=O)NC(CN)=O,0.296267722,326,3.5
2CI2,ASP,I,64,3.8,2.74,OC(C[C@H](N)C(O)=O)=O,H2O,OC(C[C@@H](C(NCC(O)=O)=O)NC(CN)=O)=O,0.296269336,365,3.8
2CI2,ASP,I,71,2.8,3.26,OC(C[C@H](N)C(O)=O)=O,H2O,OC(C[C@@H](C(NCC(O)=O)=O)NC(CN)=O)=O,0.296269336,428,2.8
2CI2,ASP,I,74,5,4.01,OC(C[C@H](N)C(O)=O)=O,H2O,OC(C[C@@H](C(NCC(O)=O)=O)NC(CN)=O)=O,0.296269336,453,5
2GB1,LYS,A,10,11,10.94,N[C@H](C(O)=O)CCCCN,H2O,O=C([C@@H](NC(CN)=O)CCCC[NH3+])NCC(O)=O,0.344006605,80,11
2GB1,LYS,A,13,11,11.06,N[C@H](C(O)=O)CCCCN,H2O,O=C([C@@H](NC(CN)=O)CCCC[NH3+])NCC(O)=O,0.344006605,104,11
2GB1,GLU,A,15,4.4,4.34,N[C@H](C(O)=O)CCC(O)=O,H2O,O=C(NCC(O)=O)[C@H](CCC(O)=O)NC(CN)=O,0.296267722,117,4.4
2GB1,GLU,A,19,3.7,4.68,N[C@H](C(O)=O)CCC(O)=O,H2O,O=C(NCC(O)=O)[C@H](CCC(O)=O)NC(CN)=O,0.296267722,147,3.7
2GB1,ASP,A,22,2.9,3.02,OC(C[C@H](N)C(O)=O)=O,H2O,OC(C[C@@H](C(NCC(O)=O)=O)NC(CN)=O)=O,0.296269336,167,2.9
2GB1,GLU,A,27,4.5,4.46,N[C@H](C(O)=O)CCC(O)=O,H2O,O=C(NCC(O)=O)[C@H](CCC(O)=O)NC(CN)=O,0.296267722,198,4.5
2GB1,LYS,A,28,10.9,10.79,N[C@H](C(O)=O)CCCCN,H2O,O=C([C@@H](NC(CN)=O)CCCC[NH3+])NCC(O)=O,0.344006605,207,10.9
2GB1,ASP,A,36,3.8,4.05,OC(C[C@H](N)C(O)=O)=O,H2O,OC(C[C@@H](C(NCC(O)=O)=O)NC(CN)=O)=O,0.296269336,276,3.8
2GB1,ASP,A,40,4,3.92,OC(C[C@H](N)C(O)=O)=O,H2O,OC(C[C@@H](C(NCC(O)=O)=O)NC(CN)=O)=O,0.296269336,303,4
2GB1,GLU,A,42,4.4,4.65,N[C@H](C(O)=O)CCC(O)=O,H2O,O=C(NCC(O)=O)[C@H](CCC(O)=O)NC(CN)=O,0.296267722,316,4.4
2GB1,ASP,A,46,3.6,3.73,OC(C[C@H](N)C(O)=O)=O,H2O,OC(C[C@@H](C(NCC(O)=O)=O)NC(CN)=O)=O,0.296269336,357,3.6
2GB1,ASP,A,47,3.4,3.79,OC(C[C@H](N)C(O)=O)=O,H2O,OC(C[C@@H](C(NCC(O)=O)=O)NC(CN)=O)=O,0.296269336,365,3.4
2GB1,GLU,A,56,4,4.45,N[C@H](C(O)=O)CCC(O)=O,H2O,O=C(NCC(O)=O)[C@H](CCC(O)=O)NC(CN)=O,0.296267722,434,4
2IGD,GLU,A,20,4.3,4.22,N[C@H](C(O)=O)CCC(O)=O,H2O,O=C(NCC(O)=O)[C@H](CCC(O)=O)NC(CN)=O,0.296267722,149,4.3
2IGD,ASP,A,27,2.9,3.14,OC(C[C@H](N)C(O)=O)=O,H2O,OC(C[C@@H](C(NCC(O)=O)=O)NC(CN)=O)=O,0.296269336,199,2.9
2IGD,GLU,A,29,4.2,4.45,N[C@H](C(O)=O)CCC(O)=O,H2O,O=C(NCC(O)=O)[C@H](CCC(O)=O)NC(CN)=O,0.296267722,213,4.2