PDB_ID,Residue,Chain ID,Residue ID,Expt. pKa,Cal. pKa,SMILES_Residue,solvent,SMILES,H_Gasteiger_Charge,DH_Index,pKa
2IGD,GLU,A,32,4.6,4.21,N[C@H](C(O)=O)CCC(O)=O,H2O,O=C(NCC(O)=O)[C@H](CCC(O)=O)NC(CN)=O,0.296267722,234,4.6
2IGD,ASP,A,41,3.9,3.86,OC(C[C@H](N)C(O)=O)=O,H2O,OC(C[C@@H](C(NCC(O)=O)=O)NC(CN)=O)=O,0.296269336,310,3.9
2IGD,ASP,A,45,4.4,3.95,OC(C[C@H](N)C(O)=O)=O,H2O,OC(C[C@@H](C(NCC(O)=O)=O)NC(CN)=O)=O,0.296269336,337,4.4
2IGD,ASP,A,51,3.6,3.56,OC(C[C@H](N)C(O)=O)=O,H2O,OC(C[C@@H](C(NCC(O)=O)=O)NC(CN)=O)=O,0.296269336,389,3.6
2IGD,ASP,A,52,3.4,3.18,OC(C[C@H](N)C(O)=O)=O,H2O,OC(C[C@@H](C(NCC(O)=O)=O)NC(CN)=O)=O,0.296269336,397,3.4
2IGD,GLU,A,61,4.2,3.95,N[C@H](C(O)=O)CCC(O)=O,H2O,O=C(NCC(O)=O)[C@H](CCC(O)=O)NC(CN)=O,0.296267722,466,4.2
2IGH,GLU,A,20,4.3,4.17,N[C@H](C(O)=O)CCC(O)=O,H2O,O=C(NCC(O)=O)[C@H](CCC(O)=O)NC(CN)=O,0.296267722,149,4.3
2IGH,ASP,A,27,2.9,3.49,OC(C[C@H](N)C(O)=O)=O,H2O,OC(C[C@@H](C(NCC(O)=O)=O)NC(CN)=O)=O,0.296269336,199,2.9
2IGH,GLU,A,29,4.2,4.65,N[C@H](C(O)=O)CCC(O)=O,H2O,O=C(NCC(O)=O)[C@H](CCC(O)=O)NC(CN)=O,0.296267722,213,4.2
2IGH,GLU,A,32,4.6,4.56,N[C@H](C(O)=O)CCC(O)=O,H2O,O=C(NCC(O)=O)[C@H](CCC(O)=O)NC(CN)=O,0.296267722,234,4.6
2IGH,ASP,A,41,3.9,4.03,OC(C[C@H](N)C(O)=O)=O,H2O,OC(C[C@@H](C(NCC(O)=O)=O)NC(CN)=O)=O,0.296269336,310,3.9
2IGH,ASP,A,45,4.4,3.7,OC(C[C@H](N)C(O)=O)=O,H2O,OC(C[C@@H](C(NCC(O)=O)=O)NC(CN)=O)=O,0.296269336,337,4.4
2IGH,ASP,A,51,3.6,3.55,OC(C[C@H](N)C(O)=O)=O,H2O,OC(C[C@@H](C(NCC(O)=O)=O)NC(CN)=O)=O,0.296269336,389,3.6
2IGH,ASP,A,52,3.4,3.95,OC(C[C@H](N)C(O)=O)=O,H2O,OC(C[C@@H](C(NCC(O)=O)=O)NC(CN)=O)=O,0.296269336,397,3.4
2IGH,GLU,A,61,4.2,4.55,N[C@H](C(O)=O)CCC(O)=O,H2O,O=C(NCC(O)=O)[C@H](CCC(O)=O)NC(CN)=O,0.296267722,466,4.2
2LZT,LYS,A,1,10.8,10.68,N[C@H](C(O)=O)CCCCN,H2O,O=C([C@@H](NC(CN)=O)CCCC[NH3+])NCC(O)=O,0.344006605,8,10.8
2LZT,GLU,A,7,2.85,3.76,N[C@H](C(O)=O)CCC(O)=O,H2O,O=C(NCC(O)=O)[C@H](CCC(O)=O)NC(CN)=O,0.296267722,56,2.85
2LZT,LYS,A,13,10.5,10.51,N[C@H](C(O)=O)CCCCN,H2O,O=C([C@@H](NC(CN)=O)CCCC[NH3+])NCC(O)=O,0.344006605,96,10.5
2LZT,ASP,A,18,2.66,3.16,OC(C[C@H](N)C(O)=O)=O,H2O,OC(C[C@@H](C(NCC(O)=O)=O)NC(CN)=O)=O,0.296269336,137,2.66
2LZT,LYS,A,33,10.4,10.95,N[C@H](C(O)=O)CCCCN,H2O,O=C([C@@H](NC(CN)=O)CCCC[NH3+])NCC(O)=O,0.344006605,256,10.4
2LZT,GLU,A,35,6.2,4.32,N[C@H](C(O)=O)CCC(O)=O,H2O,O=C(NCC(O)=O)[C@H](CCC(O)=O)NC(CN)=O,0.296267722,276,6.2
2LZT,ASP,A,48,1.6,3.43,OC(C[C@H](N)C(O)=O)=O,H2O,OC(C[C@@H](C(NCC(O)=O)=O)NC(CN)=O)=O,0.296269336,379,1.6
2LZT,ASP,A,52,3.68,3.38,OC(C[C@H](N)C(O)=O)=O,H2O,OC(C[C@@H](C(NCC(O)=O)=O)NC(CN)=O)=O,0.296269336,404,3.68
2LZT,ASP,A,66,0.9,2.7,OC(C[C@H](N)C(O)=O)=O,H2O,OC(C[C@@H](C(NCC(O)=O)=O)NC(CN)=O)=O,0.296269336,528,0.9
2LZT,ASP,A,87,2.07,3.18,OC(C[C@H](N)C(O)=O)=O,H2O,OC(C[C@@H](C(NCC(O)=O)=O)NC(CN)=O)=O,0.296269336,676,2.07
2LZT,LYS,A,96,10.8,11.03,N[C@H](C(O)=O)CCCCN,H2O,O=C([C@@H](NC(CN)=O)CCCC[NH3+])NCC(O)=O,0.344006605,737,10.8
2LZT,LYS,A,97,10.3,11.03,N[C@H](C(O)=O)CCCCN,H2O,O=C([C@@H](NC(CN)=O)CCCC[NH3+])NCC(O)=O,0.344006605,746,10.3
2LZT,ASP,A,101,4.08,3.7,OC(C[C@H](N)C(O)=O)=O,H2O,OC(C[C@@H](C(NCC(O)=O)=O)NC(CN)=O)=O,0.296269336,775,4.08
2LZT,LYS,A,116,10.2,10.52,N[C@H](C(O)=O)CCCCN,H2O,O=C([C@@H](NC(CN)=O)CCCC[NH3+])NCC(O)=O,0.344006605,897,10.2
2LZT,ASP,A,119,3.2,3.24,OC(C[C@H](N)C(O)=O)=O,H2O,OC(C[C@@H](C(NCC(O)=O)=O)NC(CN)=O)=O,0.296269336,916,3.2
2QMT,LYS,A,10,11,11.26,N[C@H](C(O)=O)CCCCN,H2O,O=C([C@@H](NC(CN)=O)CCCC[NH3+])NCC(O)=O,0.344006605,82,11
2QMT,LYS,A,13,11,11.45,N[C@H](C(O)=O)CCCCN,H2O,O=C([C@@H](NC(CN)=O)CCCC[NH3+])NCC(O)=O,0.344006605,106,11
2QMT,GLU,A,15,4.4,4.15,N[C@H](C(O)=O)CCC(O)=O,H2O,O=C(NCC(O)=O)[C@H](CCC(O)=O)NC(CN)=O,0.296267722,119,4.4
2QMT,GLU,A,19,3.7,4.47,N[C@H](C(O)=O)CCC(O)=O,H2O,O=C(NCC(O)=O)[C@H](CCC(O)=O)NC(CN)=O,0.296267722,149,3.7
2QMT,ASP,A,22,2.9,3.13,OC(C[C@H](N)C(O)=O)=O,H2O,OC(C[C@@H](C(NCC(O)=O)=O)NC(CN)=O)=O,0.296269336,169,2.9
2QMT,GLU,A,27,4.5,4.1,N[C@H](C(O)=O)CCC(O)=O,H2O,O=C(NCC(O)=O)[C@H](CCC(O)=O)NC(CN)=O,0.296267722,200,4.5
2QMT,LYS,A,28,10.9,10.99,N[C@H](C(O)=O)CCCCN,H2O,O=C([C@@H](NC(CN)=O)CCCC[NH3+])NCC(O)=O,0.344006605,209,10.9
2QMT,ASP,A,36,3.8,3.86,OC(C[C@H](N)C(O)=O)=O,H2O,OC(C[C@@H](C(NCC(O)=O)=O)NC(CN)=O)=O,0.296269336,278,3.8
2QMT,ASP,A,40,4,3.98,OC(C[C@H](N)C(O)=O)=O,H2O,OC(C[C@@H](C(NCC(O)=O)=O)NC(CN)=O)=O,0.296269336,305,4
2QMT,GLU,A,42,4.4,4.57,N[C@H](C(O)=O)CCC(O)=O,H2O,O=C(NCC(O)=O)[C@H](CCC(O)=O)NC(CN)=O,0.296267722,318,4.4
2QMT,ASP,A,46,3.6,3.57,OC(C[C@H](N)C(O)=O)=O,H2O,OC(C[C@@H](C(NCC(O)=O)=O)NC(CN)=O)=O,0.296269336,359,3.6
2QMT,ASP,A,47,3.4,3.22,OC(C[C@H](N)C(O)=O)=O,H2O,OC(C[C@@H](C(NCC(O)=O)=O)NC(CN)=O)=O,0.296269336,367,3.4
2QMT,GLU,A,56,4,3.79,N[C@H](C(O)=O)CCC(O)=O,H2O,O=C(NCC(O)=O)[C@H](CCC(O)=O)NC(CN)=O,0.296267722,436,4
2RN2,GLU,A,6,4.5,4.07,N[C@H](C(O)=O)CCC(O)=O,H2O,O=C(NCC(O)=O)[C@H](CCC(O)=O)NC(CN)=O,0.296267722,49,4.5
2RN2,ASP,A,10,6.1,3.78,OC(C[C@H](N)C(O)=O)=O,H2O,OC(C[C@@H](C(NCC(O)=O)=O)NC(CN)=O)=O,0.296269336,83,6.1
2RN2,GLU,A,32,3.6,3.6,N[C@H](C(O)=O)CCC(O)=O,H2O,O=C(NCC(O)=O)[C@H](CCC(O)=O)NC(CN)=O,0.296267722,240,3.6
2RN2,GLU,A,48,4.4,3.57,N[C@H](C(O)=O)CCC(O)=O,H2O,O=C(NCC(O)=O)[C@H](CCC(O)=O)NC(CN)=O,0.296267722,370,4.4
2RN2,GLU,A,57,3.2,3.46,N[C@H](C(O)=O)CCC(O)=O,H2O,O=C(NCC(O)=O)[C@H](CCC(O)=O)NC(CN)=O,0.296267722,433,3.2
2RN2,GLU,A,61,3.9,3.76,N[C@H](C(O)=O)CCC(O)=O,H2O,O=C(NCC(O)=O)[C@H](CCC(O)=O)NC(CN)=O,0.296267722,464,3.9
2RN2,HIS,A,62,7,6.71,N[C@H](C(O)=O)CC1=CNC=N1,H2O,O=C([C@@H](NC(CN)=O)CC1=CNC=[NH+]1)NCC(O)=O,0.311248158,471,7
2RN2,GLU,A,64,4.4,4.29,N[C@H](C(O)=O)CCC(O)=O,H2O,O=C(NCC(O)=O)[C@H](CCC(O)=O)NC(CN)=O,0.296267722,489,4.4
2RN2,ASP,A,70,2.6,3.65,OC(C[C@H](N)C(O)=O)=O,H2O,OC(C[C@@H](C(NCC(O)=O)=O)NC(CN)=O)=O,0.296269336,533,2.6
2RN2,HIS,A,83,5.5,6.14,N[C@H](C(O)=O)CC1=CNC=N1,H2O,O=C([C@@H](NC(CN)=O)CC1=CNC=[NH+]1)NCC(O)=O,0.311248158,644,5.5
2RN2,ASP,A,94,3.2,3.48,OC(C[C@H](N)C(O)=O)=O,H2O,OC(C[C@@H](C(NCC(O)=O)=O)NC(CN)=O)=O,0.296269336,745,3.2
2RN2,ASP,A,102,2,2.52,OC(C[C@H](N)C(O)=O)=O,H2O,OC(C[C@@H](C(NCC(O)=O)=O)NC(CN)=O)=O,0.296269336,809,2
2RN2,ASP,A,108,3.2,3.15,OC(C[C@H](N)C(O)=O)=O,H2O,OC(C[C@@H](C(NCC(O)=O)=O)NC(CN)=O)=O,0.296269336,867,3.2
2RN2,HIS,A,114,5,6.54,N[C@H](C(O)=O)CC1=CNC=N1,H2O,O=C([C@@H](NC(CN)=O)CC1=CNC=[NH+]1)NCC(O)=O,0.311248158,905,5
2RN2,GLU,A,119,4.1,3.64,N[C@H](C(O)=O)CCC(O)=O,H2O,O=C(NCC(O)=O)[C@H](CCC(O)=O)NC(CN)=O,0.296267722,957,4.1
2RN2,HIS,A,124,7.1,6.26,N[C@H](C(O)=O)CC1=CNC=N1,H2O,O=C([C@@H](NC(CN)=O)CC1=CNC=[NH+]1)NCC(O)=O,0.311248158,998,7.1
2RN2,HIS,A,127,7.9,7.33,N[C@H](C(O)=O)CC1=CNC=N1,H2O,O=C([C@@H](NC(CN)=O)CC1=CNC=[NH+]1)NCC(O)=O,0.311248158,1017,7.9
2RN2,GLU,A,129,3.6,3.71,N[C@H](C(O)=O)CCC(O)=O,H2O,O=C(NCC(O)=O)[C@H](CCC(O)=O)NC(CN)=O,0.296267722,1036,3.6
2RN2,GLU,A,131,4.3,4.58,N[C@H](C(O)=O)CCC(O)=O,H2O,O=C(NCC(O)=O)[C@H](CCC(O)=O)NC(CN)=O,0.296267722,1053,4.3
2RN2,ASP,A,134,4.3,3.46,OC(C[C@H](N)C(O)=O)=O,H2O,OC(C[C@@H](C(NCC(O)=O)=O)NC(CN)=O)=O,0.296269336,1078,4.3
2RN2,GLU,A,135,4.3,4.44,N[C@H](C(O)=O)CCC(O)=O,H2O,O=C(NCC(O)=O)[C@H](CCC(O)=O)NC(CN)=O,0.296267722,1087,4.3
2RN2,GLU,A,147,4.2,4.47,N[C@H](C(O)=O)CCC(O)=O,H2O,O=C(NCC(O)=O)[C@H](CCC(O)=O)NC(CN)=O,0.296267722,1173,4.2
2RN2,ASP,A,148,2,1.9,OC(C[C@H](N)C(O)=O)=O,H2O,OC(C[C@@H](C(NCC(O)=O)=O)NC(CN)=O)=O,0.296269336,1181,2
2RN2,GLU,A,154,4.4,4.13,N[C@H](C(O)=O)CCC(O)=O,H2O,O=C(NCC(O)=O)[C@H](CCC(O)=O)NC(CN)=O,0.296267722,1229,4.4
2SNI,GLU,I,23,3.2,4.14,N[C@H](C(O)=O)CCC(O)=O,H2O,O=C(NCC(O)=O)[C@H](CCC(O)=O)NC(CN)=O,0.296267722,1970,3.2
2SNI,GLU,I,26,3.3,3.62,N[C@H](C(O)=O)CCC(O)=O,H2O,O=C(NCC(O)=O)[C@H](CCC(O)=O)NC(CN)=O,0.296267722,2000,3.3
2SNI,GLU,I,33,4.2,4.24,N[C@H](C(O)=O)CCC(O)=O,H2O,O=C(NCC(O)=O)[C@H](CCC(O)=O)NC(CN)=O,0.296267722,2050,4.2
2SNI,GLU,I,34,3.8,4.26,N[C@H](C(O)=O)CCC(O)=O,H2O,O=C(NCC(O)=O)[C@H](CCC(O)=O)NC(CN)=O,0.296267722,2059,3.8
2SNI,ASP,I,42,3.3,3.59,OC(C[C@H](N)C(O)=O)=O,H2O,OC(C[C@@H](C(NCC(O)=O)=O)NC(CN)=O)=O,0.296269336,2122,3.3
2SNI,GLU,I,45,3.9,4.14,N[C@H](C(O)=O)CCC(O)=O,H2O,O=C(NCC(O)=O)[C@H](CCC(O)=O)NC(CN)=O,0.296267722,2147,3.9
2SNI,GLU,I,60,3.5,3.14,N[C@H](C(O)=O)CCC(O)=O,H2O,O=C(NCC(O)=O)[C@H](CCC(O)=O)NC(CN)=O,0.296267722,2256,3.5
2SNI,ASP,I,64,3.8,3.3,OC(C[C@H](N)C(O)=O)=O,H2O,OC(C[C@@H](C(NCC(O)=O)=O)NC(CN)=O)=O,0.296269336,2295,3.8
2SNI,ASP,I,71,2.8,3.27,OC(C[C@H](N)C(O)=O)=O,H2O,OC(C[C@@H](C(NCC(O)=O)=O)NC(CN)=O)=O,0.296269336,2358,2.8
2SNI,ASP,I,74,5,3.96,OC(C[C@H](N)C(O)=O)=O,H2O,OC(C[C@@H](C(NCC(O)=O)=O)NC(CN)=O)=O,0.296269336,2383,5
3EGF,ASP,A,11,3.9,4.17,OC(C[C@H](N)C(O)=O)=O,H2O,OC(C[C@@H](C(NCC(O)=O)=O)NC(CN)=O)=O,0.296269336,81,3.9
3EGF,GLU,A,24,4.1,4.53,N[C@H](C(O)=O)CCC(O)=O,H2O,O=C(NCC(O)=O)[C@H](CCC(O)=O)NC(CN)=O,0.296267722,175,4.1
3EGF,ASP,A,27,4,3.82,OC(C[C@H](N)C(O)=O)=O,H2O,OC(C[C@@H](C(NCC(O)=O)=O)NC(CN)=O)=O,0.296269336,197,4
3EGF,ASP,A,40,3.6,3.78,OC(C[C@H](N)C(O)=O)=O,H2O,OC(C[C@@H](C(NCC(O)=O)=O)NC(CN)=O)=O,0.296269336,291,3.6
3EGF,ASP,A,46,3.8,3.48,OC(C[C@H](N)C(O)=O)=O,H2O,OC(C[C@@H](C(NCC(O)=O)=O)NC(CN)=O)=O,0.296269336,343,3.8
3EGF,GLU,A,51,4,4.45,N[C@H](C(O)=O)CCC(O)=O,H2O,O=C(NCC(O)=O)[C@H](CCC(O)=O)NC(CN)=O,0.296267722,399,4
3GB1,LYS,A,10,11,11.06,N[C@H](C(O)=O)CCCCN,H2O,O=C([C@@H](NC(CN)=O)CCCC[NH3+])NCC(O)=O,0.344006605,80,11
3GB1,LYS,A,13,11,11.08,N[C@H](C(O)=O)CCCCN,H2O,O=C([C@@H](NC(CN)=O)CCCC[NH3+])NCC(O)=O,0.344006605,104,11
3GB1,GLU,A,15,4.4,4.21,N[C@H](C(O)=O)CCC(O)=O,H2O,O=C(NCC(O)=O)[C@H](CCC(O)=O)NC(CN)=O,0.296267722,117,4.4
3GB1,GLU,A,19,3.7,4.55,N[C@H](C(O)=O)CCC(O)=O,H2O,O=C(NCC(O)=O)[C@H](CCC(O)=O)NC(CN)=O,0.296267722,147,3.7
3GB1,ASP,A,22,2.9,3.52,OC(C[C@H](N)C(O)=O)=O,H2O,OC(C[C@@H](C(NCC(O)=O)=O)NC(CN)=O)=O,0.296269336,167,2.9
3GB1,GLU,A,27,4.5,4.35,N[C@H](C(O)=O)CCC(O)=O,H2O,O=C(NCC(O)=O)[C@H](CCC(O)=O)NC(CN)=O,0.296267722,198,4.5
3GB1,LYS,A,28,10.9,10.97,N[C@H](C(O)=O)CCCCN,H2O,O=C([C@@H](NC(CN)=O)CCCC[NH3+])NCC(O)=O,0.344006605,207,10.9
3GB1,ASP,A,36,3.8,4.01,OC(C[C@H](N)C(O)=O)=O,H2O,OC(C[C@@H](C(NCC(O)=O)=O)NC(CN)=O)=O,0.296269336,276,3.8
3GB1,ASP,A,40,4,3.98,OC(C[C@H](N)C(O)=O)=O,H2O,OC(C[C@@H](C(NCC(O)=O)=O)NC(CN)=O)=O,0.296269336,303,4
3GB1,GLU,A,42,4.4,4.63,N[C@H](C(O)=O)CCC(O)=O,H2O,O=C(NCC(O)=O)[C@H](CCC(O)=O)NC(CN)=O,0.296267722,316,4.4
3GB1,ASP,A,46,3.6,3.52,OC(C[C@H](N)C(O)=O)=O,H2O,OC(C[C@@H](C(NCC(O)=O)=O)NC(CN)=O)=O,0.296269336,357,3.6
3GB1,ASP,A,47,3.4,3.76,OC(C[C@H](N)C(O)=O)=O,H2O,OC(C[C@@H](C(NCC(O)=O)=O)NC(CN)=O)=O,0.296269336,365,3.4
3GB1,GLU,A,56,4,4.1,N[C@H](C(O)=O)CCC(O)=O,H2O,O=C(NCC(O)=O)[C@H](CCC(O)=O)NC(CN)=O,0.296267722,434,4
3ICB,LYS,A,1,10.6,11.27,N[C@H](C(O)=O)CCCCN,H2O,O=C([C@@H](NC(CN)=O)CCCC[NH3+])NCC(O)=O,0.344006605,8,10.6
3ICB,GLU,A,4,3.8,4.52,N[C@H](C(O)=O)CCC(O)=O,H2O,O=C(NCC(O)=O)[C@H](CCC(O)=O)NC(CN)=O,0.296267722,30,3.8
3ICB,GLU,A,5,3.4,4.29,N[C@H](C(O)=O)CCC(O)=O,H2O,O=C(NCC(O)=O)[C@H](CCC(O)=O)NC(CN)=O,0.296267722,39,3.4
3ICB,LYS,A,7,11.39,11.35,N[C@H](C(O)=O)CCCCN,H2O,O=C([C@@H](NC(CN)=O)CCCC[NH3+])NCC(O)=O,0.344006605,56,11.39
3ICB,GLU,A,11,4.7,4.57,N[C@H](C(O)=O)CCC(O)=O,H2O,O=C(NCC(O)=O)[C@H](CCC(O)=O)NC(CN)=O,0.296267722,88,4.7
3ICB,LYS,A,12,11.06,11.4,N[C@H](C(O)=O)CCCCN,H2O,O=C([C@@H](NC(CN)=O)CCCC[NH3+])NCC(O)=O,0.344006605,97,11.06
3ICB,LYS,A,16,10.7,11.23,N[C@H](C(O)=O)CCCCN,H2O,O=C([C@@H](NC(CN)=O)CCCC[NH3+])NCC(O)=O,0.344006605,128,10.7
3ICB,GLU,A,17,3.62,4.53,N[C@H](C(O)=O)CCC(O)=O,H2O,O=C(NCC(O)=O)[C@H](CCC(O)=O)NC(CN)=O,0.296267722,137,3.62
3ICB,LYS,A,25,11.69,11.5,N[C@H](C(O)=O)CCCCN,H2O,O=C([C@@H](NC(CN)=O)CCCC[NH3+])NCC(O)=O,0.344006605,196,11.69
3ICB,GLU,A,26,4.1,4.2,N[C@H](C(O)=O)CCC(O)=O,H2O,O=C(NCC(O)=O)[C@H](CCC(O)=O)NC(CN)=O,0.296267722,205,4.1
3ICB,LYS,A,29,11.37,11.17,N[C@H](C(O)=O)CCCCN,H2O,O=C([C@@H](NC(CN)=O)CCCC[NH3+])NCC(O)=O,0.344006605,231,11.37
3ICB,LYS,A,41,10.93,10.81,N[C@H](C(O)=O)CCCCN,H2O,O=C([C@@H](NC(CN)=O)CCCC[NH3+])NCC(O)=O,0.344006605,329,10.93
3ICB,ASP,A,47,3,3.2,OC(C[C@H](N)C(O)=O)=O,H2O,OC(C[C@@H](C(NCC(O)=O)=O)NC(CN)=O)=O,0.296269336,369,3
3ICB,GLU,A,48,4.6,4.56,N[C@H](C(O)=O)CCC(O)=O,H2O,O=C(NCC(O)=O)[C@H](CCC(O)=O)NC(CN)=O,0.296267722,378,4.6
3ICB,LYS,A,55,12.12,11.8,N[C@H](C(O)=O)CCCCN,H2O,O=C([C@@H](NC(CN)=O)CCCC[NH3+])NCC(O)=O,0.344006605,440,12.12
3ICB,GLU,A,64,3.8,4.29,N[C@H](C(O)=O)CCC(O)=O,H2O,O=C(NCC(O)=O)[C@H](CCC(O)=O)NC(CN)=O,0.296267722,506,3.8
3ICB,LYS,A,71,10.73,10.72,N[C@H](C(O)=O)CCCCN,H2O,O=C([C@@H](NC(CN)=O)CCCC[NH3+])NCC(O)=O,0.344006605,566,10.73
3ICB,LYS,A,72,11.33,11.03,N[C@H](C(O)=O)CCCCN,H2O,O=C([C@@H](NC(CN)=O)CCCC[NH3+])NCC(O)=O,0.344006605,575,11.33
3RN3,GLU,A,2,2.8,3.14,N[C@H](C(O)=O)CCC(O)=O,H2O,O=C(NCC(O)=O)[C@H](CCC(O)=O)NC(CN)=O,0.296267722,17,2.8
3RN3,GLU,A,9,4,4.26,N[C@H](C(O)=O)CCC(O)=O,H2O,O=C(NCC(O)=O)[C@H](CCC(O)=O)NC(CN)=O,0.296267722,68,4
3RN3,HIS,A,12,5.8,5.97,N[C@H](C(O)=O)CC1=CNC=N1,H2O,O=C([C@@H](NC(CN)=O)CC1=CNC=[NH+]1)NCC(O)=O,0.311248158,95,5.8
3RN3,ASP,A,38,3.5,3.46,OC(C[C@H](N)C(O)=O)=O,H2O,OC(C[C@@H](C(NCC(O)=O)=O)NC(CN)=O)=O,0.296269336,292,3.5
3RN3,GLU,A,49,4.7,4.55,N[C@H](C(O)=O)CCC(O)=O,H2O,O=C(NCC(O)=O)[C@H](CCC(O)=O)NC(CN)=O,0.296267722,384,4.7
3RN3,ASP,A,53,3.9,3.81,OC(C[C@H](N)C(O)=O)=O,H2O,OC(C[C@@H](C(NCC(O)=O)=O)NC(CN)=O)=O,0.296269336,411,3.9
3RN3,ASP,A,83,3.5,3.18,OC(C[C@H](N)C(O)=O)=O,H2O,OC(C[C@@H](C(NCC(O)=O)=O)NC(CN)=O)=O,0.296269336,635,3.5
3RN3,GLU,A,86,4.1,4.22,N[C@H](C(O)=O)CCC(O)=O,H2O,O=C(NCC(O)=O)[C@H](CCC(O)=O)NC(CN)=O,0.296267722,661,4.1
3RN3,HIS,A,105,6.6,6.32,N[C@H](C(O)=O)CC1=CNC=N1,H2O,O=C([C@@H](NC(CN)=O)CC1=CNC=[NH+]1)NCC(O)=O,0.311248158,804,6.6
3RN3,GLU,A,111,3.5,4.27,N[C@H](C(O)=O)CCC(O)=O,H2O,O=C(NCC(O)=O)[C@H](CCC(O)=O)NC(CN)=O,0.296267722,850,3.5
3RN3,HIS,A,119,6.1,6.74,N[C@H](C(O)=O)CC1=CNC=N1,H2O,O=C([C@@H](NC(CN)=O)CC1=CNC=[NH+]1)NCC(O)=O,0.311248158,909,6.1
3RN3,ASP,A,121,3.1,2.54,OC(C[C@H](N)C(O)=O)=O,H2O,OC(C[C@@H](C(NCC(O)=O)=O)NC(CN)=O)=O,0.296269336,931,3.1
4ICB,LYS,A,1,10.6,11.54,N[C@H](C(O)=O)CCCCN,H2O,O=C([C@@H](NC(CN)=O)CCCC[NH3+])NCC(O)=O,0.344006605,13,10.6
4ICB,GLU,A,4,3.8,4.43,N[C@H](C(O)=O)CCC(O)=O,H2O,O=C(NCC(O)=O)[C@H](CCC(O)=O)NC(CN)=O,0.296267722,35,3.8
4ICB,GLU,A,5,3.4,4.2,N[C@H](C(O)=O)CCC(O)=O,H2O,O=C(NCC(O)=O)[C@H](CCC(O)=O)NC(CN)=O,0.296267722,44,3.4
4ICB,LYS,A,7,11.39,11.48,N[C@H](C(O)=O)CCCCN,H2O,O=C([C@@H](NC(CN)=O)CCCC[NH3+])NCC(O)=O,0.344006605,61,11.39
4ICB,GLU,A,11,4.7,4.54,N[C@H](C(O)=O)CCC(O)=O,H2O,O=C(NCC(O)=O)[C@H](CCC(O)=O)NC(CN)=O,0.296267722,93,4.7
4ICB,LYS,A,12,11.06,11.21,N[C@H](C(O)=O)CCCCN,H2O,O=C([C@@H](NC(CN)=O)CCCC[NH3+])NCC(O)=O,0.344006605,102,11.06
4ICB,LYS,A,16,10.7,11.34,N[C@H](C(O)=O)CCCCN,H2O,O=C([C@@H](NC(CN)=O)CCCC[NH3+])NCC(O)=O,0.344006605,133,10.7
4ICB,GLU,A,17,3.62,4.69,N[C@H](C(O)=O)CCC(O)=O,H2O,O=C(NCC(O)=O)[C@H](CCC(O)=O)NC(CN)=O,0.296267722,142,3.62
4ICB,LYS,A,25,11.69,11.66,N[C@H](C(O)=O)CCCCN,H2O,O=C([C@@H](NC(CN)=O)CCCC[NH3+])NCC(O)=O,0.344006605,201,11.69
4ICB,GLU,A,26,4.1,4.45,N[C@H](C(O)=O)CCC(O)=O,H2O,O=C(NCC(O)=O)[C@H](CCC(O)=O)NC(CN)=O,0.296267722,210,4.1
4ICB,LYS,A,29,11.37,10.98,N[C@H](C(O)=O)CCCCN,H2O,O=C([C@@H](NC(CN)=O)CCCC[NH3+])NCC(O)=O,0.344006605,236,11.37
4ICB,LYS,A,41,10.93,11.1,N[C@H](C(O)=O)CCCCN,H2O,O=C([C@@H](NC(CN)=O)CCCC[NH3+])NCC(O)=O,0.344006605,334,10.93
4ICB,ASP,A,47,3,2.98,OC(C[C@H](N)C(O)=O)=O,H2O,OC(C[C@@H](C(NCC(O)=O)=O)NC(CN)=O)=O,0.296269336,374,3
4ICB,GLU,A,48,4.6,4.51,N[C@H](C(O)=O)CCC(O)=O,H2O,O=C(NCC(O)=O)[C@H](CCC(O)=O)NC(CN)=O,0.296267722,383,4.6
4ICB,LYS,A,55,12.12,11.45,N[C@H](C(O)=O)CCCCN,H2O,O=C([C@@H](NC(CN)=O)CCCC[NH3+])NCC(O)=O,0.344006605,445,12.12
4ICB,GLU,A,64,3.8,4.41,N[C@H](C(O)=O)CCC(O)=O,H2O,O=C(NCC(O)=O)[C@H](CCC(O)=O)NC(CN)=O,0.296267722,511,3.8
4ICB,LYS,A,71,10.73,10.87,N[C@H](C(O)=O)CCCCN,H2O,O=C([C@@H](NC(CN)=O)CCCC[NH3+])NCC(O)=O,0.344006605,571,10.73
4ICB,LYS,A,72,11.33,11.13,N[C@H](C(O)=O)CCCCN,H2O,O=C([C@@H](NC(CN)=O)CCCC[NH3+])NCC(O)=O,0.344006605,580,11.33
4LZT,LYS,A,1,10.8,10.67,N[C@H](C(O)=O)CCCCN,H2O,O=C([C@@H](NC(CN)=O)CCCC[NH3+])NCC(O)=O,0.344006605,8,10.8
4LZT,GLU,A,7,2.85,3.73,N[C@H](C(O)=O)CCC(O)=O,H2O,O=C(NCC(O)=O)[C@H](CCC(O)=O)NC(CN)=O,0.296267722,56,2.85
4LZT,LYS,A,13,10.5,10.5,N[C@H](C(O)=O)CCCCN,H2O,O=C([C@@H](NC(CN)=O)CCCC[NH3+])NCC(O)=O,0.344006605,96,10.5
4LZT,ASP,A,18,2.66,3.17,OC(C[C@H](N)C(O)=O)=O,H2O,OC(C[C@@H](C(NCC(O)=O)=O)NC(CN)=O)=O,0.296269336,137,2.66
4LZT,LYS,A,33,10.4,10.94,N[C@H](C(O)=O)CCCCN,H2O,O=C([C@@H](NC(CN)=O)CCCC[NH3+])NCC(O)=O,0.344006605,256,10.4
4LZT,GLU,A,35,6.2,4.3,N[C@H](C(O)=O)CCC(O)=O,H2O,O=C(NCC(O)=O)[C@H](CCC(O)=O)NC(CN)=O,0.296267722,276,6.2
4LZT,ASP,A,48,1.6,3.41,OC(C[C@H](N)C(O)=O)=O,H2O,OC(C[C@@H](C(NCC(O)=O)=O)NC(CN)=O)=O,0.296269336,379,1.6
4LZT,ASP,A,52,3.68,3.36,OC(C[C@H](N)C(O)=O)=O,H2O,OC(C[C@@H](C(NCC(O)=O)=O)NC(CN)=O)=O,0.296269336,404,3.68
4LZT,ASP,A,66,0.9,2.68,OC(C[C@H](N)C(O)=O)=O,H2O,OC(C[C@@H](C(NCC(O)=O)=O)NC(CN)=O)=O,0.296269336,528,0.9
4LZT,ASP,A,87,2.07,2.86,OC(C[C@H](N)C(O)=O)=O,H2O,OC(C[C@@H](C(NCC(O)=O)=O)NC(CN)=O)=O,0.296269336,676,2.07
4LZT,LYS,A,96,10.8,11.01,N[C@H](C(O)=O)CCCCN,H2O,O=C([C@@H](NC(CN)=O)CCCC[NH3+])NCC(O)=O,0.344006605,737,10.8
4LZT,LYS,A,97,10.3,10.99,N[C@H](C(O)=O)CCCCN,H2O,O=C([C@@H](NC(CN)=O)CCCC[NH3+])NCC(O)=O,0.344006605,746,10.3
4LZT,ASP,A,101,4.08,3.72,OC(C[C@H](N)C(O)=O)=O,H2O,OC(C[C@@H](C(NCC(O)=O)=O)NC(CN)=O)=O,0.296269336,775,4.08
4LZT,LYS,A,116,10.2,10.52,N[C@H](C(O)=O)CCCCN,H2O,O=C([C@@H](NC(CN)=O)CCCC[NH3+])NCC(O)=O,0.344006605,897,10.2
4LZT,ASP,A,119,3.2,3.26,OC(C[C@H](N)C(O)=O)=O,H2O,OC(C[C@@H](C(NCC(O)=O)=O)NC(CN)=O)=O,0.296269336,916,3.2
4PTI,ASP,A,3,3.55,3.8,OC(C[C@H](N)C(O)=O)=O,H2O,OC(C[C@@H](C(NCC(O)=O)=O)NC(CN)=O)=O,0.296269336,25,3.55
4PTI,GLU,A,7,3.85,3.93,N[C@H](C(O)=O)CCC(O)=O,H2O,O=C(NCC(O)=O)[C@H](CCC(O)=O)NC(CN)=O,0.296267722,59,3.85
4PTI,LYS,A,15,10.43,10.76,N[C@H](C(O)=O)CCCCN,H2O,O=C([C@@H](NC(CN)=O)CCCC[NH3+])NCC(O)=O,0.344006605,118,10.43
4PTI,LYS,A,26,10.44,10.7,N[C@H](C(O)=O)CCCCN,H2O,O=C([C@@H](NC(CN)=O)CCCC[NH3+])NCC(O)=O,0.344006605,218,10.44
4PTI,LYS,A,41,10.75,10.72,N[C@H](C(O)=O)CCCCN,H2O,O=C([C@@H](NC(CN)=O)CCCC[NH3+])NCC(O)=O,0.344006605,326,10.75
4PTI,LYS,A,46,10.35,10.52,N[C@H](C(O)=O)CCCCN,H2O,O=C([C@@H](NC(CN)=O)CCCC[NH3+])NCC(O)=O,0.344006605,373,10.35
4PTI,GLU,A,49,3.91,4.24,N[C@H](C(O)=O)CCC(O)=O,H2O,O=C(NCC(O)=O)[C@H](CCC(O)=O)NC(CN)=O,0.296267722,393,3.91
4PTI,ASP,A,50,3.2,3.27,OC(C[C@H](N)C(O)=O)=O,H2O,OC(C[C@@H](C(NCC(O)=O)=O)NC(CN)=O)=O,0.296269336,401,3.2
7RSA,GLU,A,2,2.8,2.84,N[C@H](C(O)=O)CCC(O)=O,H2O,O=C(NCC(O)=O)[C@H](CCC(O)=O)NC(CN)=O,0.296267722,17,2.8
7RSA,GLU,A,9,4,4.28,N[C@H](C(O)=O)CCC(O)=O,H2O,O=C(NCC(O)=O)[C@H](CCC(O)=O)NC(CN)=O,0.296267722,68,4
7RSA,HIS,A,12,5.8,5.91,N[C@H](C(O)=O)CC1=CNC=N1,H2O,O=C([C@@H](NC(CN)=O)CC1=CNC=[NH+]1)NCC(O)=O,0.311248158,95,5.8
7RSA,ASP,A,38,3.5,3.17,OC(C[C@H](N)C(O)=O)=O,H2O,OC(C[C@@H](C(NCC(O)=O)=O)NC(CN)=O)=O,0.296269336,292,3.5
7RSA,GLU,A,49,4.7,4.33,N[C@H](C(O)=O)CCC(O)=O,H2O,O=C(NCC(O)=O)[C@H](CCC(O)=O)NC(CN)=O,0.296267722,384,4.7
7RSA,ASP,A,53,3.9,3.83,OC(C[C@H](N)C(O)=O)=O,H2O,OC(C[C@@H](C(NCC(O)=O)=O)NC(CN)=O)=O,0.296269336,411,3.9
7RSA,ASP,A,83,3.5,3.22,OC(C[C@H](N)C(O)=O)=O,H2O,OC(C[C@@H](C(NCC(O)=O)=O)NC(CN)=O)=O,0.296269336,635,3.5
7RSA,GLU,A,86,4.1,4.31,N[C@H](C(O)=O)CCC(O)=O,H2O,O=C(NCC(O)=O)[C@H](CCC(O)=O)NC(CN)=O,0.296267722,661,4.1
7RSA,HIS,A,105,6.6,6.24,N[C@H](C(O)=O)CC1=CNC=N1,H2O,O=C([C@@H](NC(CN)=O)CC1=CNC=[NH+]1)NCC(O)=O,0.311248158,804,6.6
7RSA,GLU,A,111,3.5,4.26,N[C@H](C(O)=O)CCC(O)=O,H2O,O=C(NCC(O)=O)[C@H](CCC(O)=O)NC(CN)=O,0.296267722,850,3.5
7RSA,HIS,A,119,6.1,6.59,N[C@H](C(O)=O)CC1=CNC=N1,H2O,O=C([C@@H](NC(CN)=O)CC1=CNC=[NH+]1)NCC(O)=O,0.311248158,909,6.1
7RSA,ASP,A,121,3.1,2.74,OC(C[C@H](N)C(O)=O)=O,H2O,OC(C[C@@H](C(NCC(O)=O)=O)NC(CN)=O)=O,0.296269336,931,3.1
9RAT,GLU,A,2,2.8,3.04,N[C@H](C(O)=O)CCC(O)=O,H2O,O=C(NCC(O)=O)[C@H](CCC(O)=O)NC(CN)=O,0.296267722,17,2.8
9RAT,GLU,A,9,4,4.28,N[C@H](C(O)=O)CCC(O)=O,H2O,O=C(NCC(O)=O)[C@H](CCC(O)=O)NC(CN)=O,0.296267722,68,4
9RAT,HIS,A,12,5.8,5.74,N[C@H](C(O)=O)CC1=CNC=N1,H2O,O=C([C@@H](NC(CN)=O)CC1=CNC=[NH+]1)NCC(O)=O,0.311248158,95,5.8
9RAT,ASP,A,38,3.5,3.49,OC(C[C@H](N)C(O)=O)=O,H2O,OC(C[C@@H](C(NCC(O)=O)=O)NC(CN)=O)=O,0.296269336,292,3.5
9RAT,GLU,A,49,4.7,4.47,N[C@H](C(O)=O)CCC(O)=O,H2O,O=C(NCC(O)=O)[C@H](CCC(O)=O)NC(CN)=O,0.296267722,384,4.7